/*--------------------------------*- C++ -*----------------------------------*\
| =========                 |                                                 |
| \\      /  F ield         | OpenFOAM: The Open Source CFD Toolbox           |
|  \\    /   O peration     | Version:  2.4.0                                 |
|   \\  /    A nd           | Web:      www.OpenFOAM.org                      |
|    \\/     M anipulation  |                                                 |
\*---------------------------------------------------------------------------*/
FoamFile
{
    version     2.0;
    format      ascii;
    class       volVectorField;
    location    "0.1504";
    object      q;
}
// * * * * * * * * * * * * * * * * * * * * * * * * * * * * * * * * * * * * * //

dimensions      [1 0 -3 0 0 0 0];

internalField   nonuniform List<vector> 
100
(
(0.00291741623276 0 0)
(0.00385775077698 0 0)
(0.0046005699876 0 0)
(0.00551059050497 0 0)
(0.00659480460675 0 0)
(0.00785293103538 0 0)
(0.00927956523568 0 0)
(0.0109660742151 0 0)
(0.012870724158 0 0)
(0.0149900957334 0 0)
(0.0174158247286 0 0)
(0.0201079907824 0 0)
(0.0230942029106 0 0)
(0.0264042133719 0 0)
(0.029988324098 0 0)
(0.0338716853564 0 0)
(0.0380237411415 0 0)
(0.0424351155497 0 0)
(0.0470798740896 0 0)
(0.0518986506989 0 0)
(0.0568573808633 0 0)
(0.0618654668366 0 0)
(0.0668463808648 0 0)
(0.0717362499202 0 0)
(0.0764532893314 0 0)
(0.0809118597283 0 0)
(0.0850338491939 0 0)
(0.0887409293838 0 0)
(0.091947290833 0 0)
(0.0945724667805 0 0)
(0.0965583541209 0 0)
(0.0978703068077 0 0)
(0.0984899519285 0 0)
(0.0984058134707 0 0)
(0.09760415041 0 0)
(0.0960639313668 0 0)
(0.0937824701703 0 0)
(0.0907835757294 0 0)
(0.0871314940486 0 0)
(0.0828979139923 0 0)
(0.078115820154 0 0)
(0.0727743360426 0 0)
(0.0669266391543 0 0)
(0.0606073504014 0 0)
(0.0537683669183 0 0)
(0.0465610952074 0 0)
(0.0393947983765 0 0)
(0.0321328611565 0 0)
(0.0239573734668 0 0)
(0.0164897990636 0 0)
(0.00700591276327 0 0)
(-0.000354788880195 0 0)
(-0.00857254496334 0 0)
(-0.0156176373256 0 0)
(-0.0225472954383 0 0)
(-0.0295756260289 0 0)
(-0.0360464101911 0 0)
(-0.0415763852801 0 0)
(-0.0465301836365 0 0)
(-0.0505963950643 0 0)
(-0.0534713252416 0 0)
(-0.055323927866 0 0)
(-0.0560848392803 0 0)
(-0.0554604596539 0 0)
(-0.0533973098033 0 0)
(-0.0499550265625 0 0)
(-0.0450882267408 0 0)
(-0.0387578871862 0 0)
(-0.0310301683298 0 0)
(-0.0222744361858 0 0)
(-0.0127370353478 0 0)
(-0.00241673083626 0 0)
(0.00805650764757 0 0)
(0.0183152330614 0 0)
(0.0285532735771 0 0)
(0.0378532169457 0 0)
(0.0457631085413 0 0)
(0.0526072287916 0 0)
(0.0578524746885 0 0)
(0.0614092719604 0 0)
(0.0637064503729 0 0)
(0.0645104455083 0 0)
(0.0639465688294 0 0)
(0.062318351451 0 0)
(0.0597726845964 0 0)
(0.0565604490124 0 0)
(0.0527272760057 0 0)
(0.0485661186361 0 0)
(0.0443849165603 0 0)
(0.0400446991769 0 0)
(0.0357995200508 0 0)
(0.0318735083676 0 0)
(0.0279754210493 0 0)
(0.0243372074132 0 0)
(0.0211765588557 0 0)
(0.0182037139733 0 0)
(0.0155400916203 0 0)
(0.0132763671309 0 0)
(0.0112998428346 0 0)
(0.00876650277507 0 0)
)
;

boundaryField
{
    sides
    {
        type            calculated;
        value           nonuniform List<vector> 2((-0.00439719175235 0 0) (-0.00211182153955 0 0));
    }
    empty
    {
        type            empty;
    }
}


// ************************************************************************* //
