/*--------------------------------*- C++ -*----------------------------------*\
| =========                 |                                                 |
| \\      /  F ield         | OpenFOAM: The Open Source CFD Toolbox           |
|  \\    /   O peration     | Version:  2.4.0                                 |
|   \\  /    A nd           | Web:      www.OpenFOAM.org                      |
|    \\/     M anipulation  |                                                 |
\*---------------------------------------------------------------------------*/
FoamFile
{
    version     2.0;
    format      ascii;
    class       surfaceVectorField;
    location    "0.1504";
    object      qSurf;
}
// * * * * * * * * * * * * * * * * * * * * * * * * * * * * * * * * * * * * * //

dimensions      [1 0 -3 0 0 0 0];

internalField   nonuniform List<vector> 
99
(
(0.00341719764769 0 0)
(0.00415599425996 0 0)
(0.00499690079962 0 0)
(0.00597190858203 0 0)
(0.00713702399193 0 0)
(0.00847152903011 0 0)
(0.0100127894811 0 0)
(0.0118064214413 0 0)
(0.0137980087556 0 0)
(0.0160655164629 0 0)
(0.0186220158288 0 0)
(0.0214179087766 0 0)
(0.0245868724027 0 0)
(0.0280395905527 0 0)
(0.0317667555136 0 0)
(0.0357676840076 0 0)
(0.0400505482733 0 0)
(0.0446143740789 0 0)
(0.0493680538289 0 0)
(0.0542906587665 0 0)
(0.0593088264049 0 0)
(0.0643377071281 0 0)
(0.0693149449171 0 0)
(0.074164009265 0 0)
(0.078797678126 0 0)
(0.0831353870145 0 0)
(0.0870985393322 0 0)
(0.0906056016319 0 0)
(0.0935653759256 0 0)
(0.0959078624422 0 0)
(0.0975858107745 0 0)
(0.0985757990002 0 0)
(0.0988642874104 0 0)
(0.0984403080498 0 0)
(0.0972785810057 0 0)
(0.0953681993857 0 0)
(0.0927142757993 0 0)
(0.0893619165934 0 0)
(0.085402182792 0 0)
(0.080880077371 0 0)
(0.0757911343683 0 0)
(0.0701657260822 0 0)
(0.0640689460399 0 0)
(0.0574322908404 0 0)
(0.050275773077 0 0)
(0.0431355648997 0 0)
(0.0360400071461 0 0)
(0.0279523519391 0 0)
(0.019563943984 0 0)
(0.0117080179932 0 0)
(0.00390474140852 0 0)
(-0.00437092567915 0 0)
(-0.0124991291762 0 0)
(-0.0191652709743 0 0)
(-0.0261895611232 0 0)
(-0.0330621803712 0 0)
(-0.0391397282225 0 0)
(-0.0443129514727 0 0)
(-0.0488476554214 0 0)
(-0.0524823470114 0 0)
(-0.0546403571123 0 0)
(-0.0559856800131 0 0)
(-0.05612876186 0 0)
(-0.054680633347 0 0)
(-0.0519189353302 0 0)
(-0.0477265289389 0 0)
(-0.0421174247499 0 0)
(-0.0350040888826 0 0)
(-0.0265959897628 0 0)
(-0.0175316184702 0 0)
(-0.00744992827716 0 0)
(0.0031523949292 0 0)
(0.0133228413205 0 0)
(0.0237421606507 0 0)
(0.0337454190035 0 0)
(0.042099569118 0 0)
(0.0495760533962 0 0)
(0.0557369136439 0 0)
(0.059885258538 0 0)
(0.0628353177866 0 0)
(0.064404868346 0 0)
(0.0643720570852 0 0)
(0.0632290356857 0 0)
(0.0610767110797 0 0)
(0.0581669060649 0 0)
(0.0545764426563 0 0)
(0.0504842500511 0 0)
(0.0463617802955 0 0)
(0.0420376240028 0 0)
(0.0376787275792 0 0)
(0.0336835861916 0 0)
(0.0297260275148 0 0)
(0.0259040618369 0 0)
(0.0225920790487 0 0)
(0.0194999035592 0 0)
(0.0166640671507 0 0)
(0.0142818200305 0 0)
(0.0121075316529 0 0)
(0.0101155831507 0 0)
)
;

boundaryField
{
    sides
    {
        type            calculated;
        value           nonuniform List<vector> 2((0.0085624316931 0 0) (0.00285040350046 0 0));
    }
    empty
    {
        type            empty;
        value           nonuniform 0();
    }
}


// ************************************************************************* //
