/*--------------------------------*- C++ -*----------------------------------*\
| =========                 |                                                 |
| \\      /  F ield         | OpenFOAM: The Open Source CFD Toolbox           |
|  \\    /   O peration     | Version:  2.4.0                                 |
|   \\  /    A nd           | Web:      www.OpenFOAM.org                      |
|    \\/     M anipulation  |                                                 |
\*---------------------------------------------------------------------------*/
FoamFile
{
    version     2.0;
    format      ascii;
    class       volScalarField;
    location    "0.1504";
    object      rho;
}
// * * * * * * * * * * * * * * * * * * * * * * * * * * * * * * * * * * * * * //

dimensions      [1 -3 0 0 0 0 0];

internalField   nonuniform List<scalar> 
100
(
0.999807611247
0.99971935418
0.999642974881
0.999543940538
0.999415483528
0.999254619708
0.999057542478
0.998802429017
0.998489399665
0.998111554135
0.997632932466
0.997049385648
0.996341684298
0.99546218411
0.994411447621
0.993150792595
0.991625078167
0.98981233463
0.987647576103
0.985080377246
0.982074475105
0.978567728605
0.974490014275
0.969773751606
0.96435254449
0.958167782122
0.9511727726
0.94332401119
0.934568057511
0.924845609894
0.914112293648
0.902356047356
0.889598249719
0.875873414419
0.861200464364
0.845575851692
0.828990490432
0.811487851219
0.793192835215
0.774251534033
0.754730971187
0.7346573143
0.714093024859
0.693040117563
0.671369865564
0.649410630477
0.628194526029
0.607386596594
0.584556936579
0.564071849715
0.538709081249
0.518637352296
0.49635791508
0.477235317395
0.457415541822
0.436867734707
0.417048181669
0.398505738934
0.379954977614
0.362088979669
0.345394446003
0.328716645958
0.31233487837
0.297108658227
0.282604208739
0.268576302215
0.255512446698
0.243196187064
0.231127708789
0.219970412305
0.20985660802
0.200227354474
0.191463626992
0.183624566826
0.176145329806
0.169451911075
0.163675286653
0.158348540779
0.153685248266
0.149710835508
0.146021022232
0.142818487008
0.140166146313
0.137773918475
0.135727243668
0.134049010991
0.132520002117
0.131214497263
0.13017246112
0.129252517113
0.128480246809
0.127871308242
0.127329303467
0.126874491051
0.126524777379
0.1262235267
0.125975761539
0.125786100986
0.125629951647
0.125449596721
)
;

boundaryField
{
    sides
    {
        type            zeroGradient;
    }
    empty
    {
        type            empty;
    }
}


// ************************************************************************* //
