/*--------------------------------*- C++ -*----------------------------------*\
| =========                 |                                                 |
| \\      /  F ield         | OpenFOAM: The Open Source CFD Toolbox           |
|  \\    /   O peration     | Version:  2.4.0                                 |
|   \\  /    A nd           | Web:      www.OpenFOAM.org                      |
|    \\/     M anipulation  |                                                 |
\*---------------------------------------------------------------------------*/
FoamFile
{
    version     2.0;
    format      ascii;
    class       volTensorField;
    location    "0.1504";
    object      stress;
}
// * * * * * * * * * * * * * * * * * * * * * * * * * * * * * * * * * * * * * //

dimensions      [1 -1 -2 0 0 0 0];

internalField   nonuniform List<tensor> 
100
(
(0.997898052947 0 0 0 0 0 0 0 0)
(0.997104336785 0 0 0 0 0 0 0 0)
(0.996449639319 0 0 0 0 0 0 0 0)
(0.995631390044 0 0 0 0 0 0 0 0)
(0.994615478222 0 0 0 0 0 0 0 0)
(0.993395948504 0 0 0 0 0 0 0 0)
(0.991967799889 0 0 0 0 0 0 0 0)
(0.990199526052 0 0 0 0 0 0 0 0)
(0.988124401475 0 0 0 0 0 0 0 0)
(0.985735661078 0 0 0 0 0 0 0 0)
(0.982850789472 0 0 0 0 0 0 0 0)
(0.979495842745 0 0 0 0 0 0 0 0)
(0.975622708086 0 0 0 0 0 0 0 0)
(0.971041228625 0 0 0 0 0 0 0 0)
(0.965827596214 0 0 0 0 0 0 0 0)
(0.959888239036 0 0 0 0 0 0 0 0)
(0.953066576268 0 0 0 0 0 0 0 0)
(0.945370709159 0 0 0 0 0 0 0 0)
(0.936662373215 0 0 0 0 0 0 0 0)
(0.92687170333 0 0 0 0 0 0 0 0)
(0.91600565259 0 0 0 0 0 0 0 0)
(0.904011385971 0 0 0 0 0 0 0 0)
(0.890828675054 0 0 0 0 0 0 0 0)
(0.876422601103 0 0 0 0 0 0 0 0)
(0.860776789714 0 0 0 0 0 0 0 0)
(0.843907692474 0 0 0 0 0 0 0 0)
(0.825876272517 0 0 0 0 0 0 0 0)
(0.806767850235 0 0 0 0 0 0 0 0)
(0.786655479867 0 0 0 0 0 0 0 0)
(0.765597342202 0 0 0 0 0 0 0 0)
(0.743671316762 0 0 0 0 0 0 0 0)
(0.721005665406 0 0 0 0 0 0 0 0)
(0.697781347446 0 0 0 0 0 0 0 0)
(0.674200629468 0 0 0 0 0 0 0 0)
(0.65043875257 0 0 0 0 0 0 0 0)
(0.626619893287 0 0 0 0 0 0 0 0)
(0.602840036632 0 0 0 0 0 0 0 0)
(0.579225301244 0 0 0 0 0 0 0 0)
(0.555974049298 0 0 0 0 0 0 0 0)
(0.533324965368 0 0 0 0 0 0 0 0)
(0.511449905829 0 0 0 0 0 0 0 0)
(0.490411187436 0 0 0 0 0 0 0 0)
(0.470254030234 0 0 0 0 0 0 0 0)
(0.451044033696 0 0 0 0 0 0 0 0)
(0.432766612977 0 0 0 0 0 0 0 0)
(0.415536932299 0 0 0 0 0 0 0 0)
(0.399919531636 0 0 0 0 0 0 0 0)
(0.385966776566 0 0 0 0 0 0 0 0)
(0.372344756744 0 0 0 0 0 0 0 0)
(0.360550210733 0 0 0 0 0 0 0 0)
(0.34824194362 0 0 0 0 0 0 0 0)
(0.339995126686 0 0 0 0 0 0 0 0)
(0.331315984306 0 0 0 0 0 0 0 0)
(0.324918135126 0 0 0 0 0 0 0 0)
(0.319360731358 0 0 0 0 0 0 0 0)
(0.314384840837 0 0 0 0 0 0 0 0)
(0.310314683481 0 0 0 0 0 0 0 0)
(0.307326933807 0 0 0 0 0 0 0 0)
(0.304926905877 0 0 0 0 0 0 0 0)
(0.303105096525 0 0 0 0 0 0 0 0)
(0.301855269427 0 0 0 0 0 0 0 0)
(0.300918186446 0 0 0 0 0 0 0 0)
(0.300150507982 0 0 0 0 0 0 0 0)
(0.29945652132 0 0 0 0 0 0 0 0)
(0.298692440377 0 0 0 0 0 0 0 0)
(0.297693773939 0 0 0 0 0 0 0 0)
(0.296322223622 0 0 0 0 0 0 0 0)
(0.294434460563 0 0 0 0 0 0 0 0)
(0.29190840998 0 0 0 0 0 0 0 0)
(0.288672180564 0 0 0 0 0 0 0 0)
(0.284641885892 0 0 0 0 0 0 0 0)
(0.279706823368 0 0 0 0 0 0 0 0)
(0.273925732123 0 0 0 0 0 0 0 0)
(0.267315438126 0 0 0 0 0 0 0 0)
(0.259705530091 0 0 0 0 0 0 0 0)
(0.251452014914 0 0 0 0 0 0 0 0)
(0.242794344671 0 0 0 0 0 0 0 0)
(0.233490057287 0 0 0 0 0 0 0 0)
(0.223991588169 0 0 0 0 0 0 0 0)
(0.214538548915 0 0 0 0 0 0 0 0)
(0.204682297659 0 0 0 0 0 0 0 0)
(0.195056949151 0 0 0 0 0 0 0 0)
(0.186029720181 0 0 0 0 0 0 0 0)
(0.177079748823 0 0 0 0 0 0 0 0)
(0.168660359275 0 0 0 0 0 0 0 0)
(0.16102102256 0 0 0 0 0 0 0 0)
(0.153537171984 0 0 0 0 0 0 0 0)
(0.146661324264 0 0 0 0 0 0 0 0)
(0.140697146537 0 0 0 0 0 0 0 0)
(0.135098759654 0 0 0 0 0 0 0 0)
(0.130100319944 0 0 0 0 0 0 0 0)
(0.12586792153 0 0 0 0 0 0 0 0)
(0.121909280822 0 0 0 0 0 0 0 0)
(0.118418566834 0 0 0 0 0 0 0 0)
(0.115564989075 0 0 0 0 0 0 0 0)
(0.112994053141 0 0 0 0 0 0 0 0)
(0.110783445735 0 0 0 0 0 0 0 0)
(0.108991900328 0 0 0 0 0 0 0 0)
(0.107468240487 0 0 0 0 0 0 0 0)
(0.105602516923 0 0 0 0 0 0 0 0)
)
;

boundaryField
{
    sides
    {
        type            calculated;
        value           nonuniform List<tensor> 2((0.100038937725 0 0 0 0 0 0 0 0) (0.999935046352 0 0 0 0 0 0 0 0));
    }
    empty
    {
        type            empty;
    }
}


// ************************************************************************* //
