/*--------------------------------*- C++ -*----------------------------------*\
| =========                 |                                                 |
| \\      /  F ield         | OpenFOAM: The Open Source CFD Toolbox           |
|  \\    /   O peration     | Version:  2.4.0                                 |
|   \\  /    A nd           | Web:      www.OpenFOAM.org                      |
|    \\/     M anipulation  |                                                 |
\*---------------------------------------------------------------------------*/
FoamFile
{
    version     2.0;
    format      ascii;
    class       volScalarField;
    location    "0.1504";
    object      T;
}
// * * * * * * * * * * * * * * * * * * * * * * * * * * * * * * * * * * * * * //

dimensions      [0 0 0 1 0 0 0];

internalField   nonuniform List<scalar> 
100
(
1.99913726822
1.99881543334
1.99854679041
1.99820932523
1.99779231144
1.99729120541
1.9967014746
1.99597536669
1.99512178373
1.99413194062
1.99294345339
1.99156098685
1.98995412982
1.98806941429
1.98591900057
1.98345635713
1.98064388159
1.97746204929
1.97386539952
1.96983522158
1.96535496767
1.96041675957
1.95500377111
1.94910007846
1.9427044169
1.93582859278
1.92849552926
1.92073684457
1.91258826378
1.90408527621
1.89526745731
1.88618871163
1.87691889322
1.86753760222
1.8581241734
1.84874005426
1.83944752646
1.83030985902
1.8214095327
1.81284207599
1.80471000169
1.79706853069
1.78997973945
1.78349599918
1.77766848968
1.77256052649
1.76836403689
1.76530179284
1.76296248072
1.76140923112
1.76117841992
1.76261804995
1.76459504071
1.76827977709
1.77301501826
1.77906756872
1.78630438209
1.79495720808
1.80466294682
1.81546693739
1.82751751072
1.84054645716
1.85463458998
1.86928754371
1.8842320633
1.89951951471
1.91440592918
1.92869164931
1.94253738952
1.95465743118
1.96449347529
1.97219024567
1.97674565058
1.97795115546
1.97594661261
1.9701932973
1.96102649917
1.9484605255
1.93294729396
1.91530955386
1.89506193897
1.8734577821
1.85179818385
1.82919523352
1.80691353001
1.78594636093
1.76482957721
1.74491332764
1.72726518789
1.71043731836
1.69519373007
1.68213173661
1.66981366641
1.65886446452
1.64985218952
1.64169691069
1.63465475756
1.62892664303
1.62404484293
1.61806111574
)
;

boundaryField
{
    sides
    {
        type            zeroGradient;
    }
    empty
    {
        type            empty;
    }
}


// ************************************************************************* //
