/*--------------------------------*- C++ -*----------------------------------*\
| =========                 |                                                 |
| \\      /  F ield         | OpenFOAM: The Open Source CFD Toolbox           |
|  \\    /   O peration     | Version:  2.4.0                                 |
|   \\  /    A nd           | Web:      www.OpenFOAM.org                      |
|    \\/     M anipulation  |                                                 |
\*---------------------------------------------------------------------------*/
FoamFile
{
    version     2.0;
    format      ascii;
    class       volVectorField;
    location    "0.1504";
    object      U;
}
// * * * * * * * * * * * * * * * * * * * * * * * * * * * * * * * * * * * * * //

dimensions      [0 1 -1 0 0 0 0];

internalField   nonuniform List<vector> 
100
(
(0.00064964650458 0 0)
(0.000909287681441 0 0)
(0.00113283020066 0 0)
(0.0014181639907 0 0)
(0.0017812233616 0 0)
(0.0022270156243 0 0)
(0.00276158302362 0 0)
(0.00343870448997 0 0)
(0.00425191338484 0 0)
(0.00521131628853 0 0)
(0.00639861103815 0 0)
(0.0078136898996 0 0)
(0.00948969649177 0 0)
(0.011523681787 0 0)
(0.0138986629445 0 0)
(0.0166792717968 0 0)
(0.0199630329695 0 0)
(0.0237726176386 0 0)
(0.0282109696546 0 0)
(0.0333496270962 0 0)
(0.0392260352681 0 0)
(0.0459185246583 0 0)
(0.0535156603863 0 0)
(0.0620972726545 0 0)
(0.0717380390252 0 0)
(0.0824973978095 0 0)
(0.0944117578625 0 0)
(0.10750803216 0 0)
(0.12182658535 0 0)
(0.137419881919 0 0)
(0.154324494043 0 0)
(0.172534892168 0 0)
(0.192000014375 0 0)
(0.212647656381 0 0)
(0.234423617239 0 0)
(0.257314832475 0 0)
(0.281320489826 0 0)
(0.306391438824 0 0)
(0.332378588777 0 0)
(0.359074849851 0 0)
(0.38634426432 0 0)
(0.414158636312 0 0)
(0.442449638459 0 0)
(0.471157657665 0 0)
(0.500386414549 0 0)
(0.529838910159 0 0)
(0.558279795865 0 0)
(0.585700825127 0 0)
(0.614982348431 0 0)
(0.641786388695 0 0)
(0.673233798592 0 0)
(0.69691641423 0 0)
(0.723375397793 0 0)
(0.744961916475 0 0)
(0.765971367296 0 0)
(0.786836898677 0 0)
(0.805705218843 0 0)
(0.821387889461 0 0)
(0.83541189059 0 0)
(0.846876578083 0 0)
(0.854851482514 0 0)
(0.860171331895 0 0)
(0.86259360025 0 0)
(0.861341291365 0 0)
(0.856316602733 0 0)
(0.847594239818 0 0)
(0.834930124098 0 0)
(0.818016390335 0 0)
(0.796725475577 0 0)
(0.771642043139 0 0)
(0.74302676081 0 0)
(0.710313039993 0 0)
(0.67468164967 0 0)
(0.636773091076 0 0)
(0.595241042925 0 0)
(0.552563110943 0 0)
(0.510324256461 0 0)
(0.466789899958 0 0)
(0.424287527088 0 0)
(0.383973638956 0 0)
(0.343272800921 0 0)
(0.304902791895 0 0)
(0.270362858856 0 0)
(0.237106137014 0 0)
(0.206785786956 0 0)
(0.180258082704 0 0)
(0.154894542866 0 0)
(0.13219028279 0 0)
(0.113123064166 0 0)
(0.0956347409575 0 0)
(0.0803959034247 0 0)
(0.0678738702314 0 0)
(0.0563972607759 0 0)
(0.0464875457629 0 0)
(0.0386050067091 0 0)
(0.0316436716535 0 0)
(0.0257782103894 0 0)
(0.021151581307 0 0)
(0.0172754142125 0 0)
(0.0126693374682 0 0)
)
;

boundaryField
{
    sides
    {
        type            zeroGradient;
    }
    empty
    {
        type            empty;
    }
}


// ************************************************************************* //
