/*--------------------------------*- C++ -*----------------------------------*\
  =========                 |
  \\      /  F ield         | OpenFOAM: The Open Source CFD Toolbox
   \\    /   O peration     | Website:  https://openfoam.org
    \\  /    A nd           | Version:  6
     \\/     M anipulation  |
\*---------------------------------------------------------------------------*/
FoamFile
{
    version     2.0;
    format      ascii;
    class       volVectorField;
    location    "3.67516512e-08";
    object      q;
}
// * * * * * * * * * * * * * * * * * * * * * * * * * * * * * * * * * * * * * //

dimensions      [1 0 -3 0 0 0 0];

internalField   nonuniform List<vector> 
6000
(
(-31286.1939663 368819.008536 0)
(109226.862139 233267.204767 0)
(186954.019647 120565.081831 0)
(228199.568707 41911.1239367 0)
(250911.684696 -7888.84458693 0)
(264042.360647 -36593.8519715 0)
(271634.315584 -50396.354723 0)
(275739.682111 -53926.3759862 0)
(277528.027294 -50543.1710073 0)
(277724.843898 -42637.917202 0)
(276807.942866 -31899.7217499 0)
(275107.335322 -19515.7318961 0)
(272857.906699 -6310.1067483 0)
(270228.892575 7157.14881875 0)
(267342.428997 20516.5484916 0)
(264286.558858 33533.8634996 0)
(261124.683891 46069.5854442 0)
(257902.374579 58049.7771404 0)
(254652.264243 69445.1148256 0)
(251397.604621 80255.6900169 0)
(248154.818056 90500.099589 0)
(244935.244473 100207.925194 0)
(241746.314744 109414.786973 0)
(238592.423724 118159.10778 0)
(235475.678877 126479.887407 0)
(232396.522899 134415.143253 0)
(229354.143264 142000.952322 0)
(226346.654523 149271.056697 0)
(223371.165475 156256.863935 0)
(220423.879801 162987.595294 0)
(217500.295149 169490.405716 0)
(214595.451418 175790.446148 0)
(211704.133439 181910.933795 0)
(208820.974072 187873.289484 0)
(205940.473981 193697.339651 0)
(203056.991855 199401.535231 0)
(200164.748201 205003.141664 0)
(197257.853862 210518.385109 0)
(194330.352645 215962.566645 0)
(191376.265455 221350.162684 0)
(188389.629829 226694.921162 0)
(185364.53032 232009.9526 0)
(182295.109618 237307.810474 0)
(179175.546681 242600.556925 0)
(175999.996405 247899.814935 0)
(172762.50679 253216.815366 0)
(169456.954111 258562.454963 0)
(166077.04734 263947.385472 0)
(162616.434737 269382.147196 0)
(159068.895361 274877.338028 0)
(155428.532931 280443.77645 0)
(151689.845015 286092.59226 0)
(147847.557705 291835.1863 0)
(143896.214438 297683.054732 0)
(139829.659889 303647.561702 0)
(135640.687198 309739.821605 0)
(131321.121897 315970.859551 0)
(126862.446329 322352.119924 0)
(122256.773038 328896.211331 0)
(117497.707349 335617.599824 0)
(112580.579735 342532.904465 0)
(107501.768962 349660.57973 0)
(102257.294842 357020.059422 0)
(96841.3033326 364630.762595 0)
(91245.2469889 372511.564134 0)
(85458.359632 380681.289538 0)
(79469.5006181 389160.456907 0)
(73269.7929752 397973.892076 0)
(66854.9337025 407153.141207 0)
(60225.8671536 416737.167925 0)
(53386.9589125 426770.211711 0)
(46342.0300567 437297.280611 0)
(39090.2568348 448360.057431 0)
(31624.9321562 459997.277033 0)
(23937.1115049 472251.814292 0)
(16022.9819673 485181.621575 0)
(7890.30981354 498866.64385 0)
(-441.149496761 513404.279571 0)
(-8946.11662832 528894.054195 0)
(-17601.5928373 545422.641369 0)
(-26388.011961 563062.979634 0)
(-35280.9425122 581890.637962 0)
(-44239.5392223 602004.221804 0)
(-53201.3370888 623530.050361 0)
(-62085.531019 646602.689821 0)
(-70795.0525529 671332.619676 0)
(-79204.2322265 697781.662593 0)
(-87127.429145 725957.830083 0)
(-94273.2452391 755825.075956 0)
(-100186.398322 787315.965028 0)
(-104171.873322 820333.260792 0)
(-105205.283492 854704.837429 0)
(-101856.54301 890015.895831 0)
(-92224.2318002 925296.396873 0)
(-73659.6229611 958876.681344 0)
(-41532.6024246 989212.680219 0)
(14971.6738694 1016982.15818 0)
(123309.111691 1046368.72683 0)
(350991.554875 1075636.85881 0)
(803719.503425 1066318.46309 0)
(-141333.7124 321696.7211 0)
(-8367.2173797 230207.909439 0)
(72373.6210605 139682.282871 0)
(114506.451692 70147.6535226 0)
(134078.040166 24569.3641939 0)
(141752.305639 -1573.44104003 0)
(143213.222669 -13543.4568103 0)
(141439.904577 -15678.5684082 0)
(138014.384776 -11188.8209254 0)
(133783.4724 -2372.97970244 0)
(129196.207839 9134.8535623 0)
(124487.070708 22180.39668 0)
(119776.357446 35961.2960924 0)
(115124.340165 49934.1008417 0)
(110559.986603 63743.0172335 0)
(106095.989405 77165.5067611 0)
(101736.498602 90072.0823782 0)
(97481.0630643 102397.323167 0)
(93326.7252658 114119.018585 0)
(89269.2324636 125243.079945 0)
(85303.7210158 135792.788994 0)
(81425.0122654 145801.46334 0)
(77627.6951715 155307.671234 0)
(73906.1950219 164352.114824 0)
(70254.9043296 172975.514195 0)
(66668.2905713 181217.180718 0)
(63140.8675601 189114.200296 0)
(59667.0368764 196701.142155 0)
(56240.9278549 204010.097548 0)
(52856.361809 211070.821522 0)
(49506.9551561 217910.847666 0)
(46186.2724133 224555.576099 0)
(42887.9279123 231028.394308 0)
(39605.6000162 237350.863047 0)
(36332.990767 243542.944139 0)
(33063.7848811 249623.221759 0)
(29791.6383704 255609.084473 0)
(26510.1948443 261516.865654 0)
(23213.1139574 267361.958058 0)
(19894.1017157 273158.918114 0)
(16546.9406821 278921.566609 0)
(13165.5176126 284663.085217 0)
(9743.83791051 290396.105601 0)
(6276.0102928 296132.787199 0)
(2756.19017231 301884.880329 0)
(-821.511541222 307663.774932 0)
(-4463.12220575 313480.544247 0)
(-8174.85164606 319346.003695 0)
(-11963.0351962 325270.809451 0)
(-15833.957407 331265.608431 0)
(-19793.6031932 337341.219756 0)
(-23847.4554696 343508.789608 0)
(-28000.4924781 349779.842553 0)
(-32257.4880969 356166.179042 0)
(-36623.5733327 362679.64726 0)
(-41104.8294636 369331.918754 0)
(-45708.5630715 376134.460793 0)
(-50442.9730351 383098.862088 0)
(-55316.1913946 390237.514399 0)
(-60335.0587521 397564.437594 0)
(-65504.2651963 405095.879287 0)
(-70826.4424683 412850.340968 0)
(-76303.3796952 420847.919574 0)
(-81937.924822 429109.224177 0)
(-87735.6474485 437654.458192 0)
(-93705.2653263 446503.365472 0)
(-99857.2720149 455676.508272 0)
(-106201.010906 465197.767674 0)
(-112741.324791 475097.168049 0)
(-119476.491385 485412.476845 0)
(-126399.014976 496188.096418 0)
(-133499.664176 507471.06485 0)
(-140773.087462 519306.316879 0)
(-148221.456322 531735.245815 0)
(-155852.61595 544800.812851 0)
(-163672.261387 558557.989217 0)
(-171674.417389 573082.628566 0)
(-179837.13401 588470.309232 0)
(-188127.24435 604823.000655 0)
(-196510.230325 622232.368953 0)
(-204955.24714 640774.24043 0)
(-213427.967389 660521.239479 0)
(-221874.211659 681563.873226 0)
(-230205.260876 704019.544919 0)
(-238291.669469 728016.354595 0)
(-245959.125065 753659.074308 0)
(-252971.756768 780999.130432 0)
(-258994.887442 810025.188953 0)
(-263542.582728 840673.389492 0)
(-265919.753647 872845.588398 0)
(-265163.987251 906423.034945 0)
(-259996.789249 941245.429242 0)
(-248802.927277 976980.827337 0)
(-229584.695517 1012843.23751 0)
(-199495.83849 1047404.92784 0)
(-152839.872927 1079084.87622 0)
(-75442.0813281 1106715.26246 0)
(65342.1081823 1125355.9385 0)
(334447.374676 1105834.67578 0)
(810020.854642 966013.594952 0)
(-212774.705533 276102.656434 0)
(-100684.774552 219337.583835 0)
(-24078.5079466 151618.56996 0)
(18533.605159 93387.505149 0)
(38073.1156425 53021.7174111 0)
(44283.4655465 29474.8576977 0)
(43216.4195852 18933.1199947 0)
(38350.3680848 17615.9901259 0)
(31669.9132146 22580.3896574 0)
(24302.6498795 31683.7749454 0)
(16863.4643203 43385.0122289 0)
(9658.09370399 56581.9020141 0)
(2812.06102152 70499.0805173 0)
(-3646.92093307 84605.7867468 0)
(-9738.44033669 98551.4471483 0)
(-15500.6913507 112115.311713 0)
(-20975.8028481 125168.412653 0)
(-26203.3120998 137645.543877 0)
(-31217.8102782 149524.706795 0)
(-36048.5050987 160812.059071 0)
(-40719.6489132 171531.152768 0)
(-45251.3469709 181715.588059 0)
(-49660.4216412 191404.194075 0)
(-53961.1137739 200637.866471 0)
(-58165.5892608 209457.439936 0)
(-62284.3705636 217902.304023 0)
(-66326.7987897 226009.645426 0)
(-70301.4981494 233814.176584 0)
(-74216.7232096 241348.139149 0)
(-78080.5111461 248641.391239 0)
(-81900.6779844 255721.495958 0)
(-85684.7714279 262613.827529 0)
(-89440.0703853 269341.733094 0)
(-93173.6454432 275926.750104 0)
(-96892.4386736 282388.84069 0)
(-100603.318289 288746.601495 0)
(-104313.093924 295017.431996 0)
(-108028.505073 301217.668648 0)
(-111756.200637 307362.700291 0)
(-115502.718689 313467.075346 0)
(-119274.467349 319544.604556 0)
(-123077.70776 325608.460014 0)
(-126918.545676 331671.270274 0)
(-130802.942878 337745.208817 0)
(-134736.758937 343842.069612 0)
(-138725.825687 349973.323415 0)
(-142776.040563 356150.155925 0)
(-146893.44332 362383.50281 0)
(-151084.223744 368684.109134 0)
(-155354.612911 375062.640206 0)
(-159710.653067 381529.849441 0)
(-164157.91807 388096.769429 0)
(-168701.333996 394774.85402 0)
(-173345.269725 401575.990877 0)
(-178093.979932 408512.349515 0)
(-182952.291076 415596.125962 0)
(-187926.208519 422839.349256 0)
(-193023.031024 430253.956908 0)
(-198250.705342 437852.267795 0)
(-203616.533693 445647.7844 0)
(-209125.788574 453656.028439 0)
(-214781.018243 461894.994477 0)
(-220582.628996 470384.908159 0)
(-226530.718007 479147.303611 0)
(-232627.380543 488203.857328 0)
(-238878.241748 497575.718541 0)
(-245292.088178 507284.054664 0)
(-251878.250217 517352.080994 0)
(-258642.558096 527808.030557 0)
(-265583.769013 538687.649632 0)
(-272692.718731 550034.457155 0)
(-279955.5284 561896.835983 0)
(-287359.914586 574323.169378 0)
(-294900.945275 587358.623376 0)
(-302581.466181 601047.594952 0)
(-310404.785275 615442.557519 0)
(-318362.667075 630614.205791 0)
(-326426.428548 646654.195708 0)
(-334547.873695 663665.409027 0)
(-342668.752565 681744.987451 0)
(-350728.327558 700973.977132 0)
(-358657.701658 721424.318837 0)
(-366359.697461 743178.610409 0)
(-373685.35991 766343.499247 0)
(-380419.378663 791039.294811 0)
(-386274.533596 817367.559702 0)
(-390883.1202 845377.721648 0)
(-393775.738092 875054.334266 0)
(-394351.565377 906329.4024 0)
(-391851.033379 939108.701065 0)
(-385333.048339 973296.823567 0)
(-373646.750017 1008789.48157 0)
(-355366.694331 1045353.02128 0)
(-328536.950993 1082310.90562 0)
(-289658.072876 1118158.60512 0)
(-230751.8312 1150359.549 0)
(-133470.697231 1174066.10375 0)
(36548.7079799 1174389.75506 0)
(329491.75812 1104974.94979 0)
(780877.881753 876344.456299 0)
(-255547.261592 238109.667922 0)
(-166832.607895 205841.543245 0)
(-98725.9001581 158499.530504 0)
(-57938.1298084 112233.440243 0)
(-38537.5041538 77691.7513066 0)
(-32538.1716653 56824.2266138 0)
(-34228.4607213 47523.6429158 0)
(-40145.5539364 46746.9774435 0)
(-48242.2943746 51872.2032359 0)
(-57278.5411026 60928.4075267 0)
(-66502.5792177 72481.8718925 0)
(-75482.9295124 85499.1105975 0)
(-84003.108925 99245.7551293 0)
(-91984.880013 113212.039716 0)
(-99430.9614314 127055.109957 0)
(-106385.090374 140554.286681 0)
(-112906.969643 153577.089274 0)
(-119058.289825 166053.658265 0)
(-124895.89372 177957.405462 0)
(-130469.084898 189290.448647 0)
(-135819.198829 200072.99813 0)
(-140980.304259 210335.995718 0)
(-145980.309379 220116.187875 0)
(-150842.058814 229452.830723 0)
(-155584.302908 238385.471861 0)
(-160222.591793 246952.531422 0)
(-164770.128798 255190.520718 0)
(-169238.513185 263133.710665 0)
(-173638.267303 270814.03957 0)
(-177979.122443 278261.112991 0)
(-182270.145377 285502.252138 0)
(-186519.823759 292562.607369 0)
(-190736.178935 299465.343993 0)
(-194926.90075 306231.870047 0)
(-199099.462678 312882.05946 0)
(-203261.187924 319434.440553 0)
(-207419.267991 325906.347506 0)
(-211580.754104 332314.048082 0)
(-215752.541267 338672.860084 0)
(-219941.355172 344997.261613 0)
(-224153.744739 351300.996006 0)
(-228396.080448 357597.172627 0)
(-232674.558676 363898.365016 0)
(-236995.213674 370216.704936 0)
(-241363.942162 376563.965904 0)
(-245786.548727 382951.627457 0)
(-250268.816956 389390.915869 0)
(-254816.594814 395892.828916 0)
(-259435.85557 402468.167267 0)
(-264132.674128 409127.604026 0)
(-268913.068922 415881.816763 0)
(-273782.719011 422741.677327 0)
(-278746.662134 429718.450932 0)
(-283809.160787 436823.920248 0)
(-288973.917379 444070.354215 0)
(-294244.679285 451470.305993 0)
(-299626.030604 459036.33679 0)
(-305123.944473 466780.86575 0)
(-310745.638169 474716.361456 0)
(-316498.538742 482855.965965 0)
(-322388.664414 491214.40444 0)
(-328419.200936 499808.800382 0)
(-334590.175143 508658.946654 0)
(-340899.710129 517786.77768 0)
(-347346.50316 527215.211493 0)
(-353932.313895 536966.994396 0)
(-360662.899999 547064.420964 0)
(-367546.317532 557530.593019 0)
(-374588.75545 568392.159119 0)
(-381789.612145 579682.450294 0)
(-389138.542748 591443.149612 0)
(-396616.8392 603722.873545 0)
(-404203.308297 616572.787122 0)
(-411881.455719 630042.03839 0)
(-419642.378567 644177.391162 0)
(-427478.939554 659029.640214 0)
(-435372.297024 674664.015628 0)
(-443278.465217 691166.515262 0)
(-451124.191383 708638.692727 0)
(-458814.445258 727182.031935 0)
(-466242.483116 746883.68425 0)
(-473288.444937 767817.080022 0)
(-479800.850132 790058.711052 0)
(-485571.175088 813705.355681 0)
(-490319.343779 838871.512545 0)
(-493698.613835 865662.403522 0)
(-495311.310774 894140.309739 0)
(-494719.610861 924308.664306 0)
(-491441.532843 956122.593989 0)
(-484925.674694 989514.261979 0)
(-474486.373268 1024413.00187 0)
(-459162.162095 1060726.0056 0)
(-437430.887105 1098192.89218 0)
(-406592.695329 1135983.85159 0)
(-361304.151366 1172006.41662 0)
(-290588.219538 1201911.51559 0)
(-173915.867585 1216512.06388 0)
(18106.996071 1193466.13828 0)
(313851.566832 1081478.63713 0)
(714394.335405 805194.133318 0)
(-281970.660403 206501.840817 0)
(-214031.827529 191010.227035 0)
(-155183.101458 160978.682539 0)
(-117161.681686 126762.763429 0)
(-98377.4510628 98691.3709457 0)
(-92729.8213145 80769.7416182 0)
(-94860.5145605 72646.8554493 0)
(-101298.257433 72226.178792 0)
(-110009.84957 77309.8152521 0)
(-119796.606918 86120.3241931 0)
(-129921.134311 97327.647765 0)
(-139923.62045 109963.826702 0)
(-149532.843309 123338.227133 0)
(-158612.37784 136968.184447 0)
(-167118.714629 150524.52877 0)
(-175066.706965 163790.51141 0)
(-182503.059866 176631.536092 0)
(-189488.010862 188972.552583 0)
(-196083.955676 200780.677444 0)
(-202349.216883 212051.770567 0)
(-208335.268615 222800.403669 0)
(-214086.043228 233052.71759 0)
(-219638.298274 242841.493043 0)
(-225022.418141 252202.763938 0)
(-230263.380396 261173.512663 0)
(-235381.798448 269790.187776 0)
(-240394.951573 278087.845125 0)
(-245317.667479 286099.697939 0)
(-250162.957877 293856.887876 0)
(-254942.418138 301388.378276 0)
(-259666.490978 308720.953324 0)
(-264344.695028 315879.325713 0)
(-268985.855348 322886.325185 0)
(-273598.31333 329763.113558 0)
(-278190.080022 336529.379488 0)
(-282768.920283 343203.496759 0)
(-287342.382457 349802.655642 0)
(-291917.798933 356342.982873 0)
(-296502.278614 362839.658316 0)
(-301102.703729 369307.028211 0)
(-305725.736425 375758.71292 0)
(-310377.834565 382207.709286 0)
(-315065.270812 388666.488979 0)
(-319794.147543 395147.092419 0)
(-324570.406387 401661.214161 0)
(-329399.843242 408220.272839 0)
(-334288.147835 414835.459746 0)
(-339240.978932 421517.7664 0)
(-344264.057542 428278.003335 0)
(-349363.222194 435126.835917 0)
(-354544.369853 442074.869659 0)
(-359813.233755 449132.80607 0)
(-365175.036121 456311.655064 0)
(-370634.169802 463622.941032 0)
(-376194.136726 471078.805591 0)
(-381857.921119 478691.927 0)
(-387628.768928 486475.26295 0)
(-393511.050816 494441.754387 0)
(-399510.675469 502604.229515 0)
(-405634.58356 510975.729593 0)
(-411889.26444 519570.299177 0)
(-418278.848226 528404.000263 0)
(-424803.786325 537495.677746 0)
(-431461.077152 546867.000406 0)
(-438246.291458 556541.611809 0)
(-445156.567635 566543.756902 0)
(-452192.865008 576897.240509 0)
(-459359.691635 587625.695124 0)
(-466661.542197 598754.654973 0)
(-474097.10541 610314.891565 0)
(-481654.063732 622345.314434 0)
(-489307.81795 634893.3137 0)
(-497025.78607 648011.531279 0)
(-504775.236358 661752.67093 0)
(-512528.898559 676166.533763 0)
(-520262.079232 691303.36684 0)
(-527939.759691 707223.333297 0)
(-535500.119912 724005.649275 0)
(-542845.647233 741748.440297 0)
(-549848.415255 760556.231735 0)
(-556363.79484 780523.419436 0)
(-562237.557392 801728.533076 0)
(-567296.122979 824246.539827 0)
(-571326.967121 848168.804933 0)
(-574069.56984 873609.504232 0)
(-575230.991937 900686.733054 0)
(-574517.038842 929489.235488 0)
(-571649.732927 960052.253212 0)
(-566338.647527 992354.800419 0)
(-558180.972763 1026329.45533 0)
(-546469.147304 1061865.55107 0)
(-529884.541022 1098773.25947 0)
(-506041.208486 1136612.07227 0)
(-470751.954045 1174188.35887 0)
(-416697.623122 1208540.452 0)
(-331410.325753 1233313.21854 0)
(-196145.51495 1235698.03662 0)
(8996.59262772 1189485.83312 0)
(292542.512517 1046314.24326 0)
(636707.436803 749947.013776 0)
(-298511.420978 180018.447219 0)
(-248565.160886 175862.147792 0)
(-199067.842307 159968.228924 0)
(-164124.118658 137259.860372 0)
(-145800.03542 116165.722404 0)
(-140247.693385 101629.590395 0)
(-142718.676914 94795.878406 0)
(-149670.692334 94633.9991869 0)
(-158926.199792 99509.7477156 0)
(-169241.635363 107908.527779 0)
(-179905.562149 118621.649125 0)
(-190495.109768 130742.643892 0)
(-200754.683768 143616.997738 0)
(-210538.716048 156784.967254 0)
(-219780.113169 169930.849175 0)
(-228467.356379 182843.728596 0)
(-236625.420416 195389.089618 0)
(-244300.170298 207488.175384 0)
(-251546.631055 219102.337805 0)
(-258421.107111 230220.931258 0)
(-264976.583996 240852.150048 0)
(-271260.512027 251016.349948 0)
(-277314.070276 260741.291611 0)
(-283172.267025 270058.779849 0)
(-288864.522668 279002.339325 0)
(-294415.523702 287605.686768 0)
(-299846.148215 295901.778471 0)
(-305174.278661 303922.219246 0)
(-310415.411732 311696.886972 0)
(-315583.096931 319253.721785 0)
(-320689.294573 326618.676748 0)
(-325744.715759 333815.808444 0)
(-330759.143557 340867.447272 0)
(-335741.698902 347794.378782 0)
(-340701.024021 354615.996281 0)
(-345645.386041 361350.422793 0)
(-350582.724459 368014.619888 0)
(-355520.66942 374624.498152 0)
(-360466.551234 381195.032393 0)
(-365427.413987 387740.37699 0)
(-370410.039268 394273.976267 0)
(-375420.978022 400808.667587 0)
(-380466.580807 407356.777072 0)
(-385553.014608 413930.208394 0)
(-390686.261989 420540.524293 0)
(-395872.113856 427199.018736 0)
(-401116.180896 433916.775327 0)
(-406423.948599 440704.707116 0)
(-411800.878198 447573.578088 0)
(-417252.514675 454534.019516 0)
(-422784.522924 461596.570554 0)
(-428402.566191 468771.779821 0)
(-434111.995139 476070.388421 0)
(-439917.430593 483503.56978 0)
(-445822.450023 491083.144023 0)
(-451829.637886 498821.65248 0)
(-457941.149077 506732.213631 0)
(-464159.654486 514828.198119 0)
(-470489.205401 523122.913801 0)
(-476935.387308 531629.585728 0)
(-483504.332058 540361.851589 0)
(-490200.736678 549334.744893 0)
(-497025.739897 558565.805206 0)
(-503975.885752 568075.73822 0)
(-511044.078144 577888.143877 0)
(-518222.384332 588028.290679 0)
(-525505.248884 598521.564933 0)
(-532890.91317 609392.700552 0)
(-540379.2735 620666.801669 0)
(-547966.167922 632372.314272 0)
(-555636.456568 644544.734816 0)
(-563359.851556 657228.757732 0)
(-571092.761021 670476.834462 0)
(-578785.911996 684344.313798 0)
(-586392.726358 698884.533593 0)
(-593870.882845 714148.841045 0)
(-601172.616264 730193.930067 0)
(-608227.727946 747092.513454 0)
(-614931.024102 764938.154131 0)
(-621144.912019 783837.41971 0)
(-626716.198441 803893.213888 0)
(-631492.904839 825193.54401 0)
(-635326.112885 847818.127661 0)
(-638057.201481 871859.039043 0)
(-639507.722985 897435.040385 0)
(-639486.718193 924680.452863 0)
(-637804.692108 953709.744013 0)
(-634255.873691 984578.119876 0)
(-628526.007634 1017256.54931 0)
(-620004.435899 1051622.42104 0)
(-607507.182212 1087453.96671 0)
(-588932.5472 1124394.47361 0)
(-560852.077395 1161763.61598 0)
(-517957.201978 1197943.52877 0)
(-452204.034338 1229062.7107 0)
(-351939.943541 1246970.74928 0)
(-202781.67458 1236347.57607 0)
(5646.25771386 1169964.31807 0)
(268459.958503 1006023.56197 0)
(560763.609159 705565.94189 0)
(-308253.715789 157579.801363 0)
(-273811.987716 160969.808227 0)
(-233831.706572 156272.28116 0)
(-202664.021023 144010.708895 0)
(-184883.670542 130075.751851 0)
(-178996.779568 119401.488235 0)
(-181328.361362 114153.951606 0)
(-188512.726468 114313.867302 0)
(-198218.016134 118902.155945 0)
(-209039.366122 126755.697496 0)
(-220190.1222 136837.547084 0)
(-231241.554377 148321.250832 0)
(-241960.055726 160589.328744 0)
(-252220.422739 173199.796732 0)
(-261963.172051 185845.518113 0)
(-271172.655447 198318.805126 0)
(-279863.472729 210484.606329 0)
(-288069.998832 222260.841757 0)
(-295837.688459 233603.670771 0)
(-303216.278214 244496.298112 0)
(-310255.081463 254940.582387 0)
(-317000.165821 264950.87343 0)
(-323492.939556 274549.527133 0)
(-329769.69618 283763.665049 0)
(-335861.791476 292622.892752 0)
(-341796.188488 301157.749939 0)
(-347596.122237 309398.66513 0)
(-353281.700887 317375.226476 0)
(-358870.38473 325115.675812 0)
(-364377.388791 332646.613655 0)
(-369816.073408 339992.90985 0)
(-375198.337464 347177.76883 0)
(-380534.978068 354222.864263 0)
(-385835.972813 361148.47131 0)
(-391110.66903 367973.569314 0)
(-396367.895737 374715.925589 0)
(-401616.02718 381392.181651 0)
(-406863.023324 388017.953333 0)
(-412116.463932 394607.942818 0)
(-417383.585325 401176.054142 0)
(-422671.322269 407735.50416 0)
(-427986.350416 414298.924 0)
(-433335.119322 420878.449363 0)
(-438723.866318 427485.801097 0)
(-444158.609139 434132.359713 0)
(-449645.128105 440829.237007 0)
(-455188.960821 447587.343464 0)
(-460795.43633 454417.443957 0)
(-466469.763516 461330.192284 0)
(-472217.157102 468336.143412 0)
(-478042.94076 475445.761714 0)
(-483952.533588 482669.464746 0)
(-489951.237264 490017.747384 0)
(-496043.821975 497501.403661 0)
(-502234.047741 505131.802708 0)
(-508524.386059 512921.107824 0)
(-514916.218855 520882.303959 0)
(-521410.606508 529028.964355 0)
(-528009.360894 537374.842499 0)
(-534715.808392 545933.550729 0)
(-541534.545273 554718.659284 0)
(-548469.861532 563744.415525 0)
(-555523.266674 573026.947409 0)
(-562691.302413 582585.435194 0)
(-569965.030628 592442.565753 0)
(-577331.892533 602623.829591 0)
(-584779.215081 613155.872695 0)
(-592297.232252 624064.877684 0)
(-599879.07562 635376.326057 0)
(-607516.411213 647117.041755 0)
(-615191.999583 659319.082145 0)
(-622873.091092 672023.43188 0)
(-630510.273273 685280.770429 0)
(-638043.756507 699147.956892 0)
(-645413.77446 713682.191546 0)
(-652567.176548 728937.897602 0)
(-659452.939102 744970.894061 0)
(-666006.963186 761848.953917 0)
(-672136.634049 779660.756876 0)
(-677718.977727 798513.714093 0)
(-682617.017047 818519.494721 0)
(-686702.819508 839778.91495 0)
(-689867.862163 862381.924593 0)
(-692011.394897 886425.637774 0)
(-693016.100718 912032.766647 0)
(-692725.261015 939345.3729 0)
(-690916.399765 968485.28083 0)
(-687240.624155 999498.387997 0)
(-681094.21899 1032310.14352 0)
(-671417.235936 1066707.0467 0)
(-656447.766151 1102337.37013 0)
(-633466.397504 1138682.792 0)
(-598525.764846 1174837.02265 0)
(-546098.190907 1208757.42592 0)
(-468624.572147 1235702.58577 0)
(-356474.766524 1246058.94137 0)
(-199881.226553 1223037.50694 0)
(4322.46464096 1140299.57626 0)
(243635.557456 963761.896828 0)
(492086.617055 668150.39018 0)
(-313087.08395 138366.49103 0)
(-291742.64684 146688.577813 0)
(-261167.519687 150667.584126 0)
(-234663.078066 147491.01046 0)
(-218056.487901 140493.339824 0)
(-211823.620111 133992.430491 0)
(-213604.552995 130680.663477 0)
(-220552.080645 131360.645071 0)
(-230370.353651 135706.219685 0)
(-241520.660207 142961.341986 0)
(-253083.493044 152314.676841 0)
(-264553.729316 163054.947276 0)
(-275673.079391 174618.298585 0)
(-286320.048307 186584.610781 0)
(-296446.853027 198653.487783 0)
(-306046.482213 210617.21275 0)
(-315136.049571 222337.630178 0)
(-323747.601937 233727.926981 0)
(-331921.927602 244738.526138 0)
(-339703.794281 255346.362893 0)
(-347138.350055 265546.948653 0)
(-354268.672651 275348.581221 0)
(-361134.347796 284768.106005 0)
(-367770.872637 293827.815839 0)
(-374209.646757 302553.226437 0)
(-380478.291839 310971.501015 0)
(-386601.065892 319110.3075 0)
(-392599.239915 326996.963081 0)
(-398491.430707 334657.825062 0)
(-404293.945967 342117.937121 0)
(-410021.171631 349400.908632 0)
(-415685.970339 356528.946377 0)
(-421300.030178 363522.939482 0)
(-426874.122603 370402.533318 0)
(-432418.269364 377186.180719 0)
(-437941.846179 383891.190505 0)
(-443453.654887 390533.794192 0)
(-448961.985549 397129.236807 0)
(-454474.677946 403691.884586 0)
(-459999.183309 410235.337702 0)
(-465542.621468 416772.537774 0)
(-471111.825805 423315.863698 0)
(-476713.369203 429877.213875 0)
(-482353.568727 436468.077793 0)
(-488038.473138 443099.60365 0)
(-493773.843524 449782.668635 0)
(-499565.142631 456527.952993 0)
(-505417.552358 463346.010015 0)
(-511336.037261 470247.317168 0)
(-517325.457102 477242.296139 0)
(-523390.697827 484341.306048 0)
(-529536.745653 491554.640866 0)
(-535768.600887 498892.584523 0)
(-542090.956615 506365.573769 0)
(-548507.67631 513984.473795 0)
(-555021.266665 521760.892539 0)
(-561632.664916 529707.387143 0)
(-568341.619596 537837.411853 0)
(-575147.67001 546164.965009 0)
(-582051.298903 554704.093584 0)
(-589054.488977 563468.602399 0)
(-596159.961306 572472.341921 0)
(-603368.962164 581730.215709 0)
(-610678.397071 591259.611203 0)
(-618078.842634 601081.549663 0)
(-625554.881556 611220.784573 0)
(-633088.054744 621704.543181 0)
(-640660.949592 632560.484123 0)
(-648259.607921 643815.263996 0)
(-655871.678385 655495.227534 0)
(-663479.973156 667629.74193 0)
(-671054.413112 680255.838226 0)
(-678547.623664 693421.224854 0)
(-685898.392122 707182.962026 0)
(-693042.23808 721601.914417 0)
(-699922.099368 736737.171404 0)
(-706489.765567 752646.417056 0)
(-712694.162877 769394.617149 0)
(-718463.797349 787065.583864 0)
(-723698.450435 805765.759253 0)
(-728280.119651 825614.124758 0)
(-732096.026545 846725.285262 0)
(-735051.523843 869202.122135 0)
(-737053.602308 893146.989636 0)
(-737965.489067 918678.965032 0)
(-737549.200586 945930.076013 0)
(-735407.129323 975004.548202 0)
(-730912.212291 1005914.95125 0)
(-723105.674636 1038528.80251 0)
(-710556.324313 1072549.70425 0)
(-691196.760564 1107524.05409 0)
(-662146.367722 1142802.736 0)
(-619497.280623 1177258.04649 0)
(-558048.68327 1208403.46105 0)
(-471154.176435 1230694.03371 0)
(-351305.144772 1233435.42483 0)
(-192570.875029 1199260.85417 0)
(3293.3356286 1103907.47913 0)
(219805.080941 920895.231091 0)
(432410.774986 635112.779487 0)
(-314355.287587 121744.161281 0)
(-303841.380378 133185.645763 0)
(-282154.930366 143784.884336 0)
(-260953.092857 148264.459972 0)
(-246356.141582 147671.427039 0)
(-240211.275496 145409.381835 0)
(-241403.013929 144301.386058 0)
(-247797.484811 145738.588921 0)
(-257351.289849 149974.48404 0)
(-268522.361382 156666.296137 0)
(-280296.102162 165259.600344 0)
(-292071.084232 175190.231959 0)
(-303525.011676 185971.211473 0)
(-314506.087697 197217.290781 0)
(-324958.823245 208639.875364 0)
(-334878.913694 220031.637424 0)
(-344288.169217 231249.828556 0)
(-353221.407723 242201.174817 0)
(-361719.584922 252829.091306 0)
(-369825.844994 263103.501648 0)
(-377582.961469 273013.184142 0)
(-385031.629711 282560.181203 0)
(-392209.458971 291755.71131 0)
(-399150.565913 300617.165315 0)
(-405885.597392 309165.905425 0)
(-412441.955233 317425.63182 0)
(-418844.043469 325421.127022 0)
(-425113.484752 333177.286089 0)
(-431269.355794 340718.431551 0)
(-437328.499259 348067.921733 0)
(-443305.903962 355248.001102 0)
(-449215.085102 362279.787171 0)
(-455068.393104 369183.293515 0)
(-460877.222786 375977.440648 0)
(-466652.141166 382680.058864 0)
(-472402.972671 389307.907841 0)
(-478138.874521 395876.729226 0)
(-483868.417928 402401.330654 0)
(-489599.674993 408895.688268 0)
(-495340.301619 415373.052944 0)
(-501097.603712 421846.049018 0)
(-506878.57736 428326.759762 0)
(-512689.921633 434826.799454 0)
(-518538.03094 441357.377026 0)
(-524428.977809 447929.359257 0)
(-530368.49557 454553.340589 0)
(-536361.967748 461239.721248 0)
(-542414.432432 467998.786701 0)
(-548530.615797 474840.773197 0)
(-554715.010674 481775.901932 0)
(-560971.999716 488814.374055 0)
(-567305.981624 495966.342422 0)
(-573721.406951 503241.906593 0)
(-580222.606601 510651.196252 0)
(-586813.348338 518204.591012 0)
(-593496.202237 525913.058607 0)
(-600271.984154 533788.49753 0)
(-607139.65315 541843.900593 0)
(-614096.925049 550093.18476 0)
(-621141.484728 558550.696185 0)
(-628272.178773 567230.646465 0)
(-635489.270993 576146.920253 0)
(-642793.077393 585313.64235 0)
(-650181.139205 594746.530106 0)
(-657645.175942 604464.515945 0)
(-665169.670804 614490.733903 0)
(-672733.427558 624852.0832 0)
(-680313.747375 635577.34155 0)
(-687890.827202 646694.901955 0)
(-695448.992328 658231.950595 0)
(-702972.607419 670216.536604 0)
(-710437.871546 682682.274757 0)
(-717805.362665 695673.15947 0)
(-725019.255531 709244.892693 0)
(-732015.576258 723460.871593 0)
(-738734.852598 738385.317024 0)
(-745129.076745 754079.857067 0)
(-751154.915169 770608.865378 0)
(-756755.608635 788051.692989 0)
(-761845.422652 806511.780976 0)
(-766310.800732 826112.417834 0)
(-770026.809966 846980.044537 0)
(-772867.361293 869229.311894 0)
(-774683.382105 892963.811184 0)
(-775243.149995 918288.034458 0)
(-774156.714347 945306.674667 0)
(-770813.598792 974090.547626 0)
(-764340.927001 1004616.02548 0)
(-753560.295621 1036709.76285 0)
(-736914.062308 1070024.95756 0)
(-712343.111982 1104036.19135 0)
(-677103.76944 1137966.40175 0)
(-627523.178691 1170432.9439 0)
(-558795.317095 1198484.79414 0)
(-465155.389436 1215898.86393 0)
(-340990.847359 1211318.8403 0)
(-183434.463174 1167513.8612 0)
(2411.65641552 1062943.67035 0)