/*--------------------------------*- C++ -*----------------------------------*\
  =========                 |
  \\      /  F ield         | OpenFOAM: The Open Source CFD Toolbox
   \\    /   O peration     | Website:  https://openfoam.org
    \\  /    A nd           | Version:  6
     \\/     M anipulation  |
\*---------------------------------------------------------------------------*/
FoamFile
{
    version     2.0;
    format      ascii;
    class       surfaceVectorField;
    location    "3.67516512e-08";
    object      qSurf;
}
// * * * * * * * * * * * * * * * * * * * * * * * * * * * * * * * * * * * * * //

dimensions      [1 0 -3 0 0 0 0];

internalField   nonuniform List<vector> 
11840
(
(40278.4577222 294289.584131 0)
(-90268.7435375 344462.242867 0)
(160637.394664 170483.138582 0)
(48070.1599772 233261.400372 0)
(214578.841609 73184.2220918 0)
(128076.08946 131626.764244 0)
(242361.966876 10509.1033958 0)
(170015.481216 57050.2340044 0)
(258398.713161 -26957.2654337 0)
(191111.826026 9058.21420485 0)
(267943.823868 -46825.5920038 0)
(201340.451762 -18460.7749853 0)
(273404.544392 -54469.8062081 0)
(205662.645494 -31324.7987814 0)
(276148.219383 -53806.2203302 0)
(206637.471305 -34084.4482024 0)
(277027.355048 -47639.6987588 0)
(205657.015598 -30058.062611 0)
(276599.85791 -37950.2913797 0)
(203510.312387 -21606.0530915 0)
(275248.246878 -26131.6772079 0)
(200657.732389 -10396.8573075 0)
(273244.664855 -13158.8994655 0)
(197376.47383 2396.0921569 0)
(270786.094425 297.708774677 0)
(193838.988972 15958.8845235 0)
(268015.378405 13789.6454119 0)
(190155.550586 29740.1570911 0)
(265035.755819 27027.2569527 0)
(186398.079251 43378.0845462 0)
(261921.675964 39832.6112809 0)
(182614.119101 56645.2409456 0)
(258726.761321 52105.3826905 0)
(178835.305071 69408.0787695 0)
(255489.525117 63798.5100974 0)
(175082.598751 81597.7976801 0)
(252237.490541 74900.6655869 0)
(171369.658999 93189.4131949 0)
(248990.191654 85423.5349282 0)
(167705.126394 104186.603382 0)
(245761.299315 95392.8094212 0)
(164094.16271 114610.877418 0)
(242560.050113 104842.137539 0)
(160539.40703 124494.157964 0)
(239392.230392 113809.223544 0)
(157041.551289 133873.93228 0)
(236260.968826 122333.245081 0)
(153599.774807 142790.090697 0)
(233167.436854 130453.030111 0)
(150212.162981 151282.763245 0)
(230111.388452 138205.811087 0)
(146876.059298 159390.830414 0)
(227091.455885 145626.560661 0)
(143588.242395 167151.042637 0)
(224105.245543 152747.836505 0)
(140344.922339 174597.689374 0)
(221149.389582 159599.911654 0)
(137141.68069 181762.631268 0)
(218219.687 166210.944934 0)
(133973.496117 188675.45282 0)
(215311.344837 172607.074521 0)
(130834.895374 195363.581433 0)
(212419.22826 178812.46706 0)
(127720.156346 201852.361645 0)
(209538.024994 184849.408224 0)
(124623.461079 208165.151162 0)
(206662.300508 190738.474267 0)
(121538.952714 214323.485576 0)
(203786.488672 196498.754177 0)
(118460.722531 220347.297287 0)
(200904.878293 202148.064374 0)
(115382.782672 226255.138475 0)
(198011.627272 207703.119451 0)
(112299.061471 232064.368184 0)
(195100.801613 213179.659049 0)
(109203.425177 237791.295607 0)
(192166.422832 218592.550953 0)
(106089.712596 243451.294382 0)
(189202.512375 223955.887713 0)
(102951.771809 249058.905277 0)
(186203.128621 229283.081103 0)
(99783.4959859 254627.93525 0)
(183162.390027 234586.949264 0)
(96578.8549931 260171.551918 0)
(180074.47112 239879.789825 0)
(93331.9112262 265702.368845 0)
(176933.558743 245173.436689 0)
(90036.8023665 271232.517566 0)
(173733.771961 250479.305431 0)
(86687.6807485 276773.704836 0)
(170469.076069 255808.440909 0)
(83278.6205145 282337.259114 0)
(167133.243251 261171.58781 0)
(79803.5310695 287934.179252 0)
(163719.910341 266579.304186 0)
(76256.1327428 293575.206932 0)
(160222.746291 272042.12232 0)
(72630.041391 299270.943786 0)
(156635.675315 277570.729998 0)
(68918.9643187 305032.015985 0)
(152953.036207 283176.111258 0)
(65116.9395501 310869.254642 0)
(149169.539248 288869.573539 0)
(61218.4863342 316793.82581 0)
(145279.946027 294662.621517 0)
(57218.5237899 322817.236439 0)
(141278.541835 300566.718996 0)
(53111.9932262 328951.184851 0)
(137158.634026 306593.076736 0)
(48893.2801343 335207.313465 0)
(132912.389597 312752.655373 0)
(44555.7033814 341597.018272 0)
(128531.232316 319056.522658 0)
(40091.4086922 348131.509048 0)
(124006.750863 325516.544532 0)
(35491.8803057 354822.243028 0)
(119331.743309 332146.184385 0)
(30748.9773119 361681.674852 0)
(114500.835747 338961.050696 0)
(25856.0504009 368724.055329 0)
(109510.22158 345978.874613 0)
(20808.5178445 375965.897312 0)
(104356.472347 353218.836597 0)
(15603.4388982 383425.810017 0)
(99034.8829017 360700.505264 0)
(10238.0990607 391123.687387 0)
(93538.156483 368442.943866 0)
(4708.18996898 399079.606554 0)
(87856.2086587 376464.631568 0)
(-993.486512495 407313.068173 0)
(81977.4590673 384784.651971 0)
(-6876.95293232 415843.231661 0)
(75891.3367145 393425.10344 0)
(-12953.3251959 424690.489462 0)
(69591.0668691 402413.957555 0)
(-19231.8875325 433879.111505 0)
(63075.3774211 411786.895227 0)
(-25717.1733659 443439.931863 0)
(56347.8568195 421586.527839 0)
(-32407.612121 453411.5075 0)
(49413.6052548 431858.490501 0)
(-39296.9628157 463838.423451 0)
(42274.4975391 442646.216518 0)
(-46378.5036999 474766.901997 0)
(34926.0033238 453988.47619 0)
(-53650.0521626 486240.244042 0)
(27358.5989922 465923.60403 0)
(-61116.4347888 498298.254431 0)
(19564.3122557 478500.202204 0)
(-68786.5719987 510983.472795 0)
(11544.841203 491787.8489 0)
(-76665.5735396 524352.133375 0)
(3315.26358522 505878.421115 0)
(-84746.504936 538482.277268 0)
(-5100.19295645 520873.905533 0)
(-93008.0656115 553470.84602 0)
(-13677.1407656 536868.109304 0)
(-101420.564471 569418.978308 0)
(-22396.251689 553937.650575 0)
(-109955.193477 586415.752422 0)
(-31238.3544245 572152.260672 0)
(-118587.241805 604534.906041 0)
(-40172.3548831 591597.510445 0)
(-127288.033359 623849.756933 0)
(-49146.4438963 612389.501142 0)
(-136010.474792 644454.516767 0)
(-58089.5417301 634665.32739 0)
(-144678.97794 666471.302475 0)
(-66917.1653426 658552.874087 0)
(-153188.453493 690031.870439 0)
(-75527.2290349 684139.92008 0)
(-161403.970185 715243.830913 0)
(-83776.7630951 711459.978343 0)
(-169146.644176 742163.21542 0)
(-91442.7544543 740496.105347 0)
(-176159.316787 770787.67654 0)
(-98171.8540586 771193.828014 0)
(-182057.44054 801067.042541 0)
(-103412.691342 803476.800202 0)
(-186271.653988 832918.728761 0)
(-106325.606906 837246.403736 0)
(-187982.17134 866234.660213 0)
(-105698.637215 872285.917433 0)
(-186051.804012 900847.498845 0)
(-99930.350251 907946.239657 0)
(-178981.000447 936381.164279 0)
(-87066.2010003 942717.587473 0)
(-164859.664795 971951.39784 0)
(-64577.0659407 974465.204662 0)
(-141018.691102 1005993.23211 0)
(-27801.7588365 1002569.09706 0)
(-102489.960531 1036916.49453 0)
(36968.1499701 1031841.64505 0)
(-37309.1094404 1064510.40691 0)
(178756.143319 1071771.90304 0)
(83298.1724599 1088854.60902 0)
(574606.496072 1079245.34226 0)
(323388.665463 1096165.90743 0)
(769738.456265 1031268.76424 0)
(-72556.9119185 272684.223408 0)
(-189166.830832 292876.929206 0)
(43694.6929436 183803.151564 0)
(-61610.4222642 224717.551841 0)
(102106.621879 99970.6116789 0)
(19549.7634406 146834.740237 0)
(128994.326088 41998.4361117 0)
(62235.1560314 82808.4998192 0)
(140180.463981 7160.75610122 0)
(81159.2974166 39637.3527646 0)
(143483.532139 -10706.56622 0)
(87261.4357704 14721.2334396 0)
(142695.436706 -16786.9120112 0)
(86714.360792 3476.01834369 0)
(139783.919993 -14894.343109 0)
(82831.9990857 1803.68324262 0)
(135808.259783 -7731.4603215 0)
(77392.3145674 6607.05325779 0)
(131336.475794 2792.37726484 0)
(71344.7815434 15651.605544 0)
(126667.726588 15324.6991184 0)
(65178.7798006 27339.7938831 0)
(121956.855094 28915.6159333 0)
(59129.1306355 40537.30751 0)
(117282.588779 42912.8032309 0)
(53294.1132335 54452.5899769 0)
(112683.884522 56882.4230524 0)
(47702.5446762 68548.2088317 0)
(108179.010307 70547.389273 0)
(42350.6409674 82471.9774228 0)
(103775.425998 83740.6218469 0)
(37221.2583869 96003.7770961 0)
(99474.7901924 96371.1007654 0)
(32293.2170172 109015.960778 0)
(95275.5131111 108399.631787 0)
(27545.402827 121444.628433 0)
(91174.1859025 119821.402306 0)
(22958.3952652 133268.85002 0)
(87166.4587384 130653.381138 0)
(18515.0096653 144495.595284 0)
(83247.5167318 140925.482191 0)
(14200.303771 155149.007043 0)
(79412.2459656 150674.700354 0)
(10001.2747595 165263.100945 0)
(75655.2802905 159941.357485 0)
(5906.45838179 174877.001161 0)
(71971.1012745 168766.631737 0)
(1905.62182285 184031.829103 0)
(68354.1921393 177190.850857 0)
(-2010.40952768 192768.601174 0)
(64799.1113402 185252.386038 0)
(-5849.90601572 201126.840066 0)
(61300.3984936 192987.119034 0)
(-9620.48232178 209143.805495 0)
(57852.3844147 200428.36375 0)
(-13329.4186288 216854.230235 0)
(54449.066125 207607.009273 0)
(-16983.9220616 224290.353245 0)
(51084.1428334 214551.675805 0)
(-20591.2225793 231482.039117 0)
(47751.1710296 221288.812799 0)
(-24158.5177859 238456.880369 0)
(44443.7191009 227842.787814 0)
(-27692.8722549 245240.295266 0)
(41155.4340795 234236.032617 0)
(-31201.1694046 251855.672179 0)
(37880.0194212 240489.256541 0)
(-34690.1399037 258324.575567 0)
(34611.1804017 246621.683039 0)
(-38166.4266988 264666.980581 0)
(31342.59049 252651.258852 0)
(-41636.6360745 270901.490277 0)
(28067.8945965 258594.815126 0)
(-45107.3529304 277045.51101 0)
(24780.7355935 264468.190654 0)
(-48585.1285368 283115.389486 0)
(21474.7867395 270286.337621 0)
(-52076.4578555 289126.527602 0)
(18143.7834962 276063.423052 0)
(-55587.7555871 295093.48805 0)
(14781.5546752 281812.928363 0)
(-59125.3317294 301030.095807 0)
(11382.04745 287547.74356 0)
(-62695.3682722 306949.535899 0)
(7939.33068631 293280.25141 0)
(-66303.9061926 312864.446124 0)
(4447.55861929 299022.397249 0)
(-69956.8576663 318787.001452 0)
(900.889477314 304785.742276 0)
(-73660.0556109 324728.984594 0)
(-2706.6208465 310581.505018 0)
(-77419.3392748 330701.838559 0)
(-6381.10229018 316420.607227 0)
(-81240.6530203 336716.70559 0)
(-10128.8700979 322313.75018 0)
(-85130.1130115 342784.470609 0)
(-13956.2967049 328271.543753 0)
(-89093.9863556 348915.837129 0)
(-17869.5685052 334304.685866 0)
(-93138.5455457 355121.457872 0)
(-21874.4206203 340424.149041 0)
(-97269.8166326 361412.114756 0)
(-25976.0076512 346641.295916 0)
(-101493.319419 367798.901392 0)
(-30179.0629671 352967.847516 0)
(-105813.960458 374293.328837 0)
(-34488.3878881 359415.687259 0)
(-110236.228152 380907.282401 0)
(-38909.5176897 365996.588074 0)
(-114764.718517 387652.821156 0)
(-43449.2290015 372722.047667 0)
(-119404.817258 394541.916933 0)
(-48115.5151494 379603.435447 0)
(-124163.181597 401586.321816 0)
(-52916.8486129 386652.546074 0)
(-129047.641691 408797.760645 0)
(-57860.929617 393882.441375 0)
(-134066.360538 416188.524703 0)
(-62953.4967092 401308.247735 0)
(-139226.497763 423772.323759 0)
(-68197.9006661 408947.498389 0)
(-144533.008532 431565.0456 0)
(-73595.8699438 416819.758352 0)
(-149988.312411 439585.015224 0)
(-79149.30267 424945.61487 0)
(-155593.241458 447852.523744 0)
(-84862.2990142 433345.510193 0)
(-161349.02019 456388.76865 0)
(-90742.3449104 442039.139768 0)
(-167259.36836 465214.747231 0)
(-96799.7752487 451046.08013 0)
(-173331.532525 474350.859114 0)
(-103045.341766 460387.878011 0)
(-179575.364409 483817.83556 0)
(-109486.650373 470091.072406 0)
(-186000.413261 493639.07262 0)
(-116125.066085 480189.770379 0)
(-192612.075793 503843.617378 0)
(-122954.980202 490725.976505 0)
(-199408.689603 514468.281863 0)
(-129966.63471 501746.583135 0)
(-206381.540884 525557.220885 0)
(-137151.823225 513298.065672 0)
(-213518.657865 537158.396554 0)
(-144509.39244 525422.564513 0)
(-220811.02966 549318.634637 0)
(-152046.269332 538159.867285 0)
(-228257.536815 562081.171082 0)
(-159771.583658 551556.691379 0)
(-235864.313705 575489.428033 0)
(-167686.300169 565678.370549 0)
(-243637.032366 589596.833504 0)
(-175775.358447 580613.452266 0)
(-251569.876677 604476.602662 0)
(-184008.872246 596464.658144 0)
(-259638.825351 620222.686597 0)
(-192351.890689 613330.519261 0)
(-267804.784568 636938.099325 0)
(-200773.635146 631292.340013 0)
(-276023.91734 654717.711696 0)
(-209245.659733 650419.614343 0)
(-284254.634372 673640.017465 0)
(-217727.364653 670791.476058 0)
(-292451.481457 693777.064766 0)
(-226148.826106 692514.956101 0)
(-300546.681988 715215.348936 0)
(-234402.105769 715720.010673 0)
(-308430.549308 738067.371581 0)
(-242339.849465 740529.678871 0)
(-315940.465389 762458.133524 0)
(-249766.782564 767024.445895 0)
(-322854.788171 788491.154093 0)
(-256411.027924 795222.613086 0)
(-328877.342165 816215.896663 0)
(-261876.419973 825082.52275 0)
(-333602.781094 845616.024244 0)
(-265586.126412 856518.446731 0)
(-336467.604486 876620.076226 0)
(-266722.958282 889423.59136 0)
(-336698.682976 909123.114175 0)
(-264171.814323 923686.861345 0)
(-333266.371256 943006.235561 0)
(-256497.334881 959132.336796 0)
(-324848.036067 978125.083764 0)
(-242004.339107 995254.965432 0)
(-309804.921965 1014192.26901 0)
(-218767.220323 1030838.90286 0)
(-286078.714384 1050495.14387 0)
(-183915.523385 1064216.41946 0)
(-250521.237236 1085643.16613 0)
(-130207.759587 1095030.81364 0)
(-196429.437608 1117784.11632 0)
(-36107.0152327 1124522.26705 0)
(-107418.781149 1144324.41205 0)
(154400.855685 1139822.73405 0)
(51521.3369356 1155613.14037 0)
(565783.445064 1046391.8026 0)
(342152.97443 1111701.76294 0)
(823095.025633 919862.129362 0)
(-155018.490028 246845.524922 0)
(-242563.802819 251598.745499 0)
(-53964.6343277 186710.608818 0)
(-140787.329087 211950.988964 0)
(5011.13385447 119996.525176 0)
(-66851.4155528 155954.236946 0)
(33338.5471836 69160.2863324 0)
(-24374.2651396 103803.793452 0)
(43966.4050445 37453.2434333 0)
(-4766.66316494 66216.6948395 0)
(45168.7123412 21277.6569669 0)
(1113.49737158 43937.9616311 0)
(41438.4765854 16204.0929135 0)
(-656.308370273 33997.7940607 0)
(35246.5923416 18690.4218113 0)
(-6480.06968676 32955.2613609 0)
(27999.6488576 26203.9012837 0)
(-14261.7646175 38019.6606831 0)
(20487.2960631 36949.9232922 0)
(-22777.4425108 47132.2825366 0)
(13122.1690147 49644.4234413 0)
(-31335.826589 58802.254964 0)
(6090.28822506 63374.0159002 0)
(-39579.7599502 71956.8385182 0)
(-550.279594354 77504.0203528 0)
(-47357.0598763 85836.5378791 0)
(-6806.58690349 91608.1163942 0)
(-54633.0782652 99917.8232027 0)
(-12713.5724991 105411.864369 0)
(-61433.3418852 113852.278849 0)
(-18314.1942574 118748.888315 0)
(-67808.7013282 127418.724557 0)
(-23650.2278506 131528.352862 0)
(-73816.2730938 140486.734781 0)
(-28758.784542 143711.244364 0)
(-79510.2953846 152989.44283 0)
(-33671.453789 155293.003837 0)
(-84938.4769111 164903.327863 0)
(-38414.5380536 166290.887343 0)
(-90141.0997539 176233.264802 0)
(-43009.7728439 176735.106149 0)
(-95151.448277 187001.776795 0)
(-47475.228745 186662.945837 0)
(-99996.8242017 197241.668024 0)
(-51826.1344556 196114.973091 0)
(-104699.678585 206991.156124 0)
(-56075.4739445 205132.528344 0)
(-109278.584902 216290.65291 0)
(-60234.4135267 213756.030833 0)
(-113749.010278 225180.602471 0)
(-64312.7160184 222023.931504 0)
(-118123.994652 233700.094622 0)
(-68319.2095202 229972.231939 0)
(-122414.819452 241886.113925 0)
(-72262.2223585 237634.401823 0)
(-126631.617665 249773.255069 0)
(-76149.8493204 245041.469208 0)
(-130783.810783 257393.688751 0)
(-79990.0114555 252222.125603 0)
(-134880.321785 264777.208805 0)
(-83790.3983557 259202.816863 0)
(-138929.629129 271951.301747 0)
(-87558.4198533 266007.866903 0)
(-142939.781431 278941.259135 0)
(-91301.2323644 272659.667586 0)
(-146918.453081 285770.356119 0)
(-95025.8199013 279178.91456 0)
(-150873.043321 292460.079057 0)
(-98739.0725589 285584.839628 0)
(-154810.774956 299030.357643 0)
(-102447.824832 291895.403645 0)
(-158738.75506 305499.765404 0)
(-106158.854226 298127.44548 0)
(-162663.991829 311885.679801 0)
(-109878.860915 304296.802697 0)
(-166593.384633 318204.41318 0)
(-113614.445229 310418.420244 0)
(-170533.706131 324471.3287 0)
(-117372.087215 316506.454774 0)
(-174491.585864 330700.948847 0)
(-121158.126876 322574.375926 0)
(-178473.497059 336907.058836 0)
(-124978.747889 328635.064168 0)
(-182485.747342 343102.806317 0)
(-128839.975105 334700.903724 0)
(-186534.476727 349300.798567 0)
(-132747.699663 340783.865699 0)
(-190625.669133 355513.195154 0)
(-136707.741017 346895.573807 0)
(-194765.18522 361751.789111 0)
(-140725.941259 353047.348496 0)
(-198958.822595 368028.067918 0)
(-144808.264898 359250.237409 0)
(-203212.400212 374353.251676 0)
(-148960.853682 365515.056126 0)
(-207531.844145 380738.319685 0)
(-153189.976887 371852.471505 0)
(-211923.227625 387194.051705 0)
(-157501.842684 378273.148698 0)
(-216392.707385 393731.115816 0)
(-161902.304633 384787.948015 0)
(-220946.323959 400360.220634 0)
(-166396.588975 391408.111577 0)
(-225589.704876 407092.313763 0)
(-170989.229595 398145.350051 0)
(-230327.803454 413938.76371 0)
(-175684.362895 405011.758791 0)
(-235164.863837 420911.436609 0)
(-180486.374039 412019.573905 0)
(-240104.757806 428022.602604 0)
(-185400.648349 419180.896379 0)
(-245151.664538 435284.690837 0)
(-190433.99975 426507.600201 0)
(-250310.819362 442710.028663 0)
(-195594.376585 434011.621843 0)
(-255588.883859 450310.782402 0)
(-200889.75195 441705.669743 0)
(-260993.544348 458099.288205 0)
(-206326.586184 449604.145684 0)
(-266532.287338 466088.792982 0)
(-211908.638646 457723.868103 0)
(-272210.804452 474294.375265 0)
(-217636.918949 466084.177188 0)
(-278031.860431 482733.622912 0)
(-223511.092084 474706.248534 0)
(-283995.42201 491426.656783 0)
(-229531.865201 483611.86976 0)
(-290100.294472 500395.366332 0)
(-235703.190405 492822.346146 0)
(-296346.659514 509662.174193 0)
(-242032.931867 502358.366484 0)
(-302738.20346 519249.054243 0)
(-248531.162852 512241.410704 0)
(-309282.417617 529177.640924 0)
(-255206.357317 522496.580779 0)
(-315988.335339 539470.917888 0)
(-262061.01862 533155.761957 0)
(-322862.25553 550156.171892 0)
(-269089.139818 544259.254776 0)
(-329903.357798 561267.918087 0)
(-276277.6242 555854.208351 0)
(-337101.798826 572848.924846 0)
(-283611.957848 567989.900463 0)
(-344441.178109 584948.011829 0)
(-291083.432332 580712.693221 0)
(-351904.933635 597615.28259 0)
(-298692.832613 594065.351923 0)
(-359483.11258 610898.049618 0)
(-306446.225094 608093.785333 0)
(-367174.166197 624841.779429 0)
(-314343.352423 622858.622044 0)
(-374978.251131 639497.831697 0)
(-322365.512018 638443.055779 0)
(-382884.172453 654934.031105 0)
(-330471.92996 654948.36418 0)
(-390857.951607 671239.485652 0)
(-338607.581854 672477.358984 0)
(-398841.288304 688517.109531 0)
(-346714.512036 691117.957637 0)
(-406760.40142 706866.96045 0)
(-354732.984547 710942.204459 0)
(-414535.133043 726373.466577 0)
(-362585.695167 732023.953313 0)
(-422075.07345 747109.085577 0)
(-370152.848251 754459.656882 0)
(-429258.991238 769152.88638 0)
(-377253.225242 778369.755012 0)
(-435908.329219 792606.221024 0)
(-383637.383811 803872.623253 0)
(-441770.069046 817586.064304 0)
(-388983.152184 831046.791004 0)
(-446513.186273 844194.413833 0)
(-392879.538825 859906.786286 0)
(-449728.237833 872483.690899 0)
(-394798.154428 890404.936974 0)
(-450918.164815 902442.013109 0)
(-394064.08934 922453.33383 0)
(-449480.238529 934005.495594 0)
(-389834.040532 955956.848163 0)
(-444686.011275 967086.540362 0)
(-381079.12455 990842.770417 0)
(-435655.907685 1001600.82809 0)
(-366575.404404 1027019.16994 0)
(-421306.849582 1037460.48877 0)
(-344878.253114 1064128.82224 0)
(-400219.435906 1074450.16107 0)
(-313984.862422 1101133.46089 0)
(-370233.693752 1111881.34097 0)
(-269597.910764 1136294.74541 0)
(-327174.294816 1148068.70179 0)
(-199940.097225 1167692.10707 0)
(-261653.742022 1179730.06316 0)
(-76284.2754612 1189379.17757 0)
(-153593.706204 1199917.09751 0)
(153197.155606 1169376.39434 0)
(30789.7268259 1189372.12606 0)
(550159.562106 1001016.23701 0)
(332969.675132 1096487.82125 0)
(768696.795781 835198.855198 0)
(-210437.483654 222781.395787 0)
(-273449.24981 217986.562197 0)
(-127286.667068 184077.268729 0)
(-195488.313813 197527.58996 0)
(-71993.7767 134566.736658 0)
(-131500.481976 160291.953986 0)
(-43491.3888207 92241.4258696 0)
(-91684.2074978 120305.144824 0)
(-32651.9954591 64142.6766692 0)
(-72372.3301407 88912.5769419 0)
(-31802.1206845 49543.5828957 0)
(-66453.426 69450.177117 0)
(-36376.675569 45198.850787 0)
(-68362.3755402 60725.9580746 0)
(-43824.6446373 47970.2779896 0)
(-74629.2106607 60134.934972 0)
(-52646.6454251 55507.6407077 0)
(-83192.7801711 65248.4813601 0)
(-61922.8109491 66135.8228083 0)
(-92795.9421385 74190.8816242 0)
(-71101.2180723 78653.5539174 0)
(-102657.545304 85583.5044209 0)
(-79882.0848883 92200.4062437 0)
(-112308.367079 98427.5888082 0)
(-88135.3528531 106171.325145 0)
(-121495.613618 112010.249406 0)
(-95836.0496718 120153.02366 0)
(-130113.40647 125833.473684 0)
(-103016.194369 133873.778506 0)
(-138147.886769 139559.188894 0)
(-109732.853995 147164.619085 0)
(-145636.058505 152967.056513 0)
(-116049.523389 159930.102143 0)
(-152637.945481 165922.562457 0)
(-122026.657408 172126.343332 0)
(-159219.744051 178352.844894 0)
(-127717.616199 183744.379897 0)
(-165444.745998 190228.146556 0)
(-133167.53996 194797.760401 0)
(-171369.179875 201547.648458 0)
(-138413.743877 205313.711668 0)
(-177040.952107 212329.028528 0)
(-143486.788076 215327.182249 0)
(-182499.942123 222601.140217 0)
(-148411.669436 224876.915473 0)
(-187778.955462 232399.045064 0)
(-153208.869567 234002.816037 0)
(-192904.823076 241760.648933 0)
(-157895.260377 242744.188892 0)
(-197899.471385 250724.430694 0)
(-162484.962293 251138.672779 0)
(-202780.962003 259327.994228 0)
(-166990.15878 259221.728065 0)
(-207564.482486 267607.258479 0)
(-171421.757975 267026.476223 0)
(-212263.188206 275596.076354 0)
(-175789.804021 274583.688799 0)
(-216888.79584 283326.07836 0)
(-180103.659039 281921.820115 0)
(-221451.92738 290826.619236 0)
(-184372.075859 289067.082047 0)
(-225962.303082 298124.802155 0)
(-188603.278095 296043.590738 0)
(-230428.89746 305245.592787 0)
(-192805.085106 302873.580616 0)
(-234860.111596 312212.012085 0)
(-196985.04777 309577.641522 0)
(-239263.946101 319045.362782 0)
(-201150.546562 316174.932057 0)
(-243648.1347 325765.441282 0)
(-205308.833319 322683.350096 0)
(-248020.21764 332390.712088 0)
(-209467.031024 329119.668964 0)
(-252387.563734 338938.449471 0)
(-213632.116802 335499.656298 0)
(-256757.36435 345424.861581 0)
(-217810.905177 341838.186004 0)
(-261136.619829 351865.207232 0)
(-222010.037077 348149.345575 0)
(-265532.129957 358273.907611 0)
(-226235.974381 354446.538872 0)
(-269950.493103 364664.652405 0)
(-230494.999482 360742.585806 0)
(-274398.114073 371050.501343 0)
(-234793.221119 367049.819602 0)
(-278881.217214 377443.983034 0)
(-239136.590736 373380.177647 0)
(-283405.860605 383857.190171 0)
(-243530.937649 379745.276884 0)
(-287977.952278 390301.865446 0)
(-247982.031948 386156.465097 0)
(-292603.278452 396789.469589 0)
(-252495.673447 392624.848472 0)
(-297287.557804 403331.225577 0)
(-257077.779645 399161.311725 0)
(-302036.523988 409938.142428 0)
(-261734.415691 405776.56205 0)
(-306856.008795 416621.036286 0)
(-266471.699842 412481.23063 0)
(-311751.965019 423390.579145 0)
(-271295.555731 419286.045531 0)
(-316730.359914 430257.406487 0)
(-276211.373028 426202.04739 0)
(-321796.913872 437232.294783 0)
(-281223.744572 433240.771401 0)
(-326956.755644 444326.377983 0)
(-286336.497426 440414.29787 0)
(-332214.172994 451551.325424 0)
(-291553.154745 447735.111417 0)
(-337572.679113 458919.384523 0)
(-296877.741875 455215.811655 0)
(-343035.519042 466443.23231 0)
(-302315.573797 462868.84603 0)
(-348606.502079 474135.68541 0)
(-307873.506882 470706.507814 0)
(-354290.766671 482009.446108 0)
(-313559.271245 478741.38079 0)
(-360094.947074 490077.129946 0)
(-319379.946349 486987.201168 0)
(-366026.379222 498351.749269 0)
(-325340.211298 495459.83235 0)
(-372091.466518 506847.605372 0)
(-331441.34801 504177.871554 0)
(-378293.909967 515581.262107 0)
(-337681.798347 513162.479822 0)
(-384633.825971 524572.106071 0)
(-344059.339536 522436.382955 0)
(-391108.526123 533842.09645 0)
(-350573.963078 532022.499509 0)
(-397714.907501 543414.698606 0)
(-357229.858063 541943.057789 0)
(-404452.367749 553313.528036 0)
(-364034.982061 552220.094004 0)
(-411324.50906 563561.620516 0)
(-370997.693958 562877.709626 0)
(-418338.126527 574182.196439 0)
(-378121.52167 573945.463849 0)
(-425499.189245 585201.15339 0)
(-385400.63367 585461.190311 0)
(-432807.286708 596650.440461 0)
(-392819.017415 597471.129699 0)
(-440251.44253 608570.464213 0)
(-400354.914896 610026.379279 0)
(-447810.234804 621009.573036 0)
(-407988.757744 623177.330676 0)
(-455457.127102 634020.12921 0)
(-415709.306035 636970.482701 0)
(-463168.27424 647653.404584 0)
(-423511.893383 651452.031596 0)
(-470926.928574 661957.718339 0)
(-431386.836828 666678.216423 0)
(-478718.924978 676983.32205 0)
(-439303.656073 682725.643093 0)
(-486519.00821 692792.601257 0)
(-447201.753092 699691.803048 0)
(-494275.268524 709468.172439 0)
(-454994.414221 717681.919664 0)
(-501902.212679 727110.339313 0)
(-462581.121274 736790.585444 0)
(-509287.02709 745822.717353 0)
(-469853.217387 757094.291748 0)
(-516301.355425 765696.252293 0)
(-476681.253447 778663.678616 0)
(-522803.4863 786806.265698 0)
(-482888.461655 801585.45067 0)
(-528622.653887 809227.119121 0)
(-488228.774724 825971.08086 0)
(-533534.33504 833051.20688 0)
(-492384.497763 851938.057861 0)
(-537246.555166 858390.964993 0)
(-494980.944179 879573.906769 0)
(-539409.647001 885355.487505 0)
(-495602.215146 908909.327511 0)
(-539641.938304 914016.775218 0)
(-493795.81931 939917.922761 0)
(-537550.448009 944390.737672 0)
(-489062.107354 972538.256886 0)
(-532727.238715 976444.019004 0)
(-480818.222971 1006704.5591 0)
(-524705.934363 1010115.64422 0)
(-468310.806012 1042368.82144 0)
(-512854.504313 1045332.18899 0)
(-450447.516118 1079451.10054 0)
(-496163.887242 1081981.43365 0)
(-425470.477349 1117573.25146 0)
(-472862.656074 1119752.6193 0)
(-390094.512727 1155510.21385 0)
(-439673.695286 1157681.35771 0)
(-337085.941446 1190631.516 0)
(-390261.369325 1193285.12048 0)
(-250303.965345 1217950.44039 0)
(-312477.536706 1221202.89324 0)
(-99914.8481712 1223955.87084 0)
(-185654.955065 1230206.65566 0)
(150164.004722 1166768.24573 0)
(16014.9877811 1195205.66467 0)
(510759.458873 952589.978452 0)
(310713.67627 1064660.66027 0)
(687236.047238 771958.000647 0)
(-248200.46974 200690.703539 0)
(-293010.656105 189916.85814 0)
(-181401.403571 177684.232613 0)
(-234746.426761 182486.577607 0)
(-131239.817656 144095.916323 0)
(-180377.081305 160808.40581 0)
(-103434.667094 111191.857719 0)
(-143683.140622 132717.739826 0)
(-92670.8287845 87386.5940745 0)
(-125064.797604 108088.213299 0)
(-92153.9694252 74456.1039452 0)
(-119459.47105 91760.4845796 0)
(-97225.136312 70663.7513435 0)
(-121737.2176 84240.4920727 0)
(-105246.248409 73499.7432675 0)
(-128399.047254 83950.8581264 0)
(-114746.707197 80854.3583067 0)
(-137373.432709 88946.08592 0)
(-124848.63978 91167.1279074 0)
(-147457.100294 97565.2038517 0)
(-134997.557982 103309.211836 0)
(-157920.753221 108535.95671 0)
(-144848.800794 116471.327252 0)
(-168306.112003 120923.278253 0)
(-154210.668684 130082.991205 0)
(-178332.275953 134057.22717 0)
(-163002.433421 143750.8313 0)
(-187846.253485 147467.95697 0)
(-171217.323749 157211.261363 0)
(-196787.210406 160833.057079 0)
(-178891.846429 170295.470138 0)
(-205156.105236 173937.973913 0)
(-186083.341624 182903.739997 0)
(-212990.726259 186647.255999 0)
(-192855.432186 194986.027723 0)
(-220347.050747 198883.262267 0)
(-199269.637669 206526.85381 0)
(-227286.714146 210609.750866 0)
(-205381.257736 217533.697624 0)
(-233869.520862 221819.09003 0)
(-211237.957355 228028.523473 0)
(-240149.642432 232522.596154 0)
(-216879.844001 238041.902531 0)
(-246174.193942 242743.560094 0)
(-222340.193446 247609.010294 0)
(-251983.131028 252512.353316 0)
(-227646.383408 256766.882368 0)
(-257609.792404 261863.016867 0)
(-232820.904496 265552.573743 0)
(-263081.763197 270830.925091 0)
(-237882.410819 274002.030314 0)
(-268421.903556 279451.273329 0)
(-242846.709135 282149.48517 0)
(-273649.391642 287758.172631 0)
(-247727.543911 290027.165614 0)
(-278780.616665 295784.129171 0)
(-252537.111059 297665.149359 0)
(-283829.828328 303559.738292 0)
(-257286.361079 305091.313159 0)
(-288809.570756 311113.521194 0)
(-261985.216387 312331.38346 0)
(-293731.003408 318471.898656 0)
(-266642.78978 319409.089735 0)
(-298604.194198 325659.29331 0)
(-271267.610241 326346.379014 0)
(-303438.402723 332698.314145 0)
(-275867.814137 333163.632298 0)
(-308242.322843 339609.958756 0)
(-280451.26741 339879.84531 0)
(-313024.252739 346413.788918 0)
(-285025.61869 346512.771196 0)
(-317792.188305 353128.07112 0)
(-289598.307823 353079.042487 0)
(-322553.859894 359769.89671 0)
(-294176.557083 359594.287406 0)
(-327316.739102 366355.297373 0)
(-298767.362932 366073.244633 0)
(-332088.036823 372899.361434 0)
(-303377.496627 372529.87399 0)
(-336874.706158 379416.348498 0)
(-308013.515431 378977.461298 0)
(-341683.456884 385919.798874 0)
(-312681.780616 385428.718652 0)
(-346520.78048 392422.636781 0)
(-317388.474566 391895.881486 0)
(-351392.976913 398937.268025 0)
(-322139.611502 398390.800279 0)
(-356306.171806 405475.672092 0)
(-326941.046877 404925.020341 0)
(-361266.319874 412049.486334 0)
(-331798.50323 411509.841428 0)
(-366279.205789 418670.07769 0)
(-336717.632028 418156.352685 0)
(-371350.466508 425348.596418 0)
(-341704.110815 424875.448885 0)
(-376485.656065 432096.008916 0)
(-346763.735221 431677.849181 0)
(-381690.347288 438923.11525 0)
(-351902.428382 438574.152411 0)
(-386970.222164 445840.571175 0)
(-357126.090664 445574.9617 0)
(-392331.068289 452858.947544 0)
(-362440.276693 452691.084995 0)
(-397778.606658 459988.859348 0)