/*--------------------------------*- C++ -*----------------------------------*\
  =========                 |
  \\      /  F ield         | OpenFOAM: The Open Source CFD Toolbox
   \\    /   O peration     | Website:  https://openfoam.org
    \\  /    A nd           | Version:  6
     \\/     M anipulation  |
\*---------------------------------------------------------------------------*/
FoamFile
{
    version     2.0;
    format      ascii;
    class       volVectorField;
    location    "3.67516512e-08";
    object      qWall;
}
// * * * * * * * * * * * * * * * * * * * * * * * * * * * * * * * * * * * * * //

dimensions      [1 0 -3 0 0 0 0];

internalField   uniform (0 0 0);

boundaryField
{
    wall
    {
        type            calculated;
        value           nonuniform List<vector> 
200
(
(7874511.5155 309464.849854 0)
(8150362.95204 133417.619843 0)
(8490646.40143 2760.88531214 0)
(8826537.45317 -88217.5143323 0)
(9142904.95024 -149070.454915 0)
(9430069.44624 -187969.794015 0)
(9685122.32993 -211027.574878 0)
(9908101.58026 -222853.776653 0)
(10100826.2509 -226847.196868 0)
(10266083.9039 -225470.415844 0)
(10407127.3383 -220503.703045 0)
(10527330.4729 -213236.364817 0)
(10629963.648 -204597.450506 0)
(10718055.4177 -195247.758822 0)
(10794317.1826 -185648.886343 0)
(10861112.0862 -176116.126986 0)
(10920454.1471 -166858.351188 0)
(10974027.3907 -158007.58129 0)
(11023217.3264 -149640.977975 0)
(11069148.487 -141797.350874 0)
(11112722.8263 -134489.443778 0)
(11154655.461 -127712.735996 0)
(11195506.4313 -121451.499871 0)
(11235708.7994 -115682.992314 0)
(11275593.7244 -110380.534673 0)
(11315412.5063 -105515.848313 0)
(11355355.0205 -101060.681448 0)
(11395564.1716 -96987.7209975 0)
(11436146.7462 -93270.9516219 0)
(11477181.6387 -89885.752825 0)
(11518726.4327 -86808.9713336 0)
(11560822.8913 -84019.036508 0)
(11603501.4688 -81496.0555292 0)
(11646784.7942 -79221.8122578 0)
(11690690.1653 -77179.6601963 0)
(11735231.2413 -75354.3609679 0)
(11780419.1869 -73731.9283719 0)
(11826263.4864 -72299.5069413 0)
(11872772.5656 -71045.2806277 0)
(11919954.2975 -69958.3950263 0)
(11967816.4186 -69028.8831244 0)
(12016366.8551 -68247.5954616 0)
(12065613.9379 -67606.1404052 0)
(12115566.4872 -67096.8377582 0)
(12166233.7851 -66712.6826232 0)
(12217625.5063 -66447.3094524 0)
(12269751.722 -66294.9406612 0)
(12322623.0804 -66250.3036548 0)
(12376251.1884 -66308.5097338 0)
(12430649.0779 -66464.9103995 0)
(12485831.5071 -66714.9742397 0)
(12541814.8128 -67054.2433248 0)
(12598616.1556 -67478.411383 0)
(12656252.3045 -67983.5091496 0)
(12714738.4553 -68566.1040469 0)
(12774087.7827 -69223.3667908 0)
(12834312.2795 -69952.8759245 0)
(12895424.8896 -70752.1407818 0)
(12957442.1784 -71617.9849089 0)
(13020386.205 -72546.0571802 0)
(13084284.2812 -73530.7366766 0)
(13149166.0935 -74565.5393584 0)
(13215058.9831 -75643.8793672 0)
(13281983.3988 -76759.8069924 0)
(13349950.9611 -77908.2537242 0)
(13418966.7742 -79084.4176843 0)
(13489035.7131 -80282.2169811 0)
(13560170.0029 -81492.1852561 0)
(13632393.551 -82699.6742455 0)
(13705738.4422 -83884.4900222 0)
(13780231.8905 -85022.6954992 0)
(13855877.7224 -86090.0075119 0)
(13932642.6366 -87064.4866629 0)
(14010458.8665 -87925.4862968 0)
(14089246.7205 -88647.5776108 0)
(14168944.2875 -89192.1694775 0)
(14249518.4563 -89502.8460004 0)
(14330936.1511 -89509.1315065 0)
(14413101.2544 -89136.692228 0)
(14495793.5742 -88314.8831981 0)
(14578652.1129 -86972.600679 0)
(14661212.6406 -85022.8644087 0)
(14742961.8278 -82347.8161209 0)
(14823349.6712 -78797.2360063 0)
(14901729.9068 -74202.0295072 0)
(14977251.044 -68390.001828 0)
(15048753.3968 -61188.8882996 0)
(15114715.4897 -52412.8185926 0)
(15173247.6761 -41839.2359143 0)
(15222082.3802 -29181.3827362 0)
(15258492.457 -14058.4681616 0)
(15279105.2961 4005.96262407 0)
(15279657.464 25470.2837498 0)
(15254790.4099 50498.8510908 0)
(15197928.8757 78807.6640288 0)
(15101245.286 110399.199666 0)
(14955701.5004 147715.576475 0)
(14755299.983 199026.774262 0)
(14503550.9012 284147.077782 0)
(14280413.2585 440566.531111 0)
(7874511.5155 -309464.849854 0)
(8150362.95204 -133417.619843 0)
(8490646.40143 -2760.88531217 0)
(8826537.45317 88217.5143322 0)
(9142904.95024 149070.454915 0)
(9430069.44624 187969.794014 0)
(9685122.32993 211027.574878 0)
(9908101.58026 222853.776653 0)
(10100826.2509 226847.196868 0)
(10266083.9039 225470.415844 0)
(10407127.3383 220503.703045 0)
(10527330.4729 213236.364817 0)
(10629963.648 204597.450505 0)
(10718055.4177 195247.758822 0)
(10794317.1826 185648.886343 0)
(10861112.0862 176116.126986 0)
(10920454.1471 166858.351188 0)
(10974027.3907 158007.58129 0)
(11023217.3264 149640.977975 0)
(11069148.487 141797.350874 0)
(11112722.8263 134489.443778 0)
(11154655.461 127712.735995 0)
(11195506.4313 121451.499871 0)
(11235708.7994 115682.992313 0)
(11275593.7244 110380.534673 0)
(11315412.5063 105515.848313 0)
(11355355.0205 101060.681448 0)
(11395564.1716 96987.7209975 0)
(11436146.7462 93270.9516218 0)
(11477181.6387 89885.752825 0)
(11518726.4327 86808.9713336 0)
(11560822.8913 84019.036508 0)
(11603501.4688 81496.0555292 0)
(11646784.7942 79221.8122578 0)
(11690690.1653 77179.6601963 0)
(11735231.2413 75354.3609679 0)
(11780419.1869 73731.9283719 0)
(11826263.4864 72299.5069412 0)
(11872772.5656 71045.2806277 0)
(11919954.2975 69958.3950263 0)
(11967816.4186 69028.8831244 0)
(12016366.8551 68247.5954615 0)
(12065613.9379 67606.1404052 0)
(12115566.4872 67096.8377582 0)
(12166233.7851 66712.6826232 0)
(12217625.5063 66447.3094523 0)
(12269751.722 66294.9406612 0)
(12322623.0804 66250.3036548 0)
(12376251.1884 66308.5097338 0)
(12430649.0779 66464.9103995 0)
(12485831.5071 66714.9742397 0)
(12541814.8128 67054.2433248 0)
(12598616.1556 67478.411383 0)
(12656252.3045 67983.5091496 0)
(12714738.4553 68566.1040468 0)
(12774087.7827 69223.3667908 0)
(12834312.2795 69952.8759245 0)
(12895424.8896 70752.1407818 0)
(12957442.1784 71617.9849089 0)
(13020386.205 72546.0571801 0)
(13084284.2812 73530.7366766 0)
(13149166.0935 74565.5393584 0)
(13215058.9831 75643.8793671 0)
(13281983.3988 76759.8069923 0)
(13349950.9611 77908.2537242 0)
(13418966.7742 79084.4176843 0)
(13489035.7131 80282.2169811 0)
(13560170.0029 81492.1852561 0)
(13632393.551 82699.6742454 0)
(13705738.4422 83884.4900222 0)
(13780231.8905 85022.6954992 0)
(13855877.7224 86090.0075119 0)
(13932642.6366 87064.4866628 0)
(14010458.8665 87925.4862968 0)
(14089246.7205 88647.5776107 0)
(14168944.2875 89192.1694775 0)
(14249518.4563 89502.8460004 0)
(14330936.1511 89509.1315065 0)
(14413101.2544 89136.692228 0)
(14495793.5742 88314.8831981 0)
(14578652.1129 86972.600679 0)
(14661212.6406 85022.8644087 0)
(14742961.8278 82347.8161209 0)
(14823349.6712 78797.2360063 0)
(14901729.9068 74202.0295071 0)
(14977251.044 68390.0018279 0)
(15048753.3968 61188.8882996 0)
(15114715.4897 52412.8185926 0)
(15173247.6761 41839.2359143 0)
(15222082.3802 29181.3827362 0)
(15258492.457 14058.4681616 0)
(15279105.2961 -4005.96262407 0)
(15279657.464 -25470.2837499 0)
(15254790.4099 -50498.8510909 0)
(15197928.8757 -78807.6640288 0)
(15101245.286 -110399.199666 0)
(14955701.5004 -147715.576475 0)
(14755299.983 -199026.774262 0)
(14503550.9012 -284147.077782 0)
(14280413.2585 -440566.531111 0)
)
;
    }
    inlet
    {
        type            calculated;
        value           uniform (0 0 0);
    }
    outlet
    {
        type            calculated;
        value           uniform (0 0 0);
    }
    frontAndBackPlanes
    {
        type            empty;
    }
}


// ************************************************************************* //
