/*--------------------------------*- C++ -*----------------------------------*\
  =========                 |
  \\      /  F ield         | OpenFOAM: The Open Source CFD Toolbox
   \\    /   O peration     | Website:  https://openfoam.org
    \\  /    A nd           | Version:  6
     \\/     M anipulation  |
\*---------------------------------------------------------------------------*/
FoamFile
{
    version     2.0;
    format      ascii;
    class       volTensorField;
    location    "3.67516512e-08";
    object      stressWall;
}
// * * * * * * * * * * * * * * * * * * * * * * * * * * * * * * * * * * * * * //

dimensions      [1 -1 -2 0 0 0 0];

internalField   uniform (0 0 0 0 0 0 0 0 0);

boundaryField
{
    wall
    {
        type            calculated;
        value           nonuniform List<tensor> 
200
(
(174413.204221 -6995.36179047 0 -6995.36179047 173483.594381 0 0 0 0)
(175796.351083 -7267.78433621 0 -7267.78433621 175118.787907 0 0 0 0)
(176587.557829 -7605.0739147 0 -7605.0739147 176186.803885 0 0 0 0)
(176950.962046 -7933.998336 0 -7933.998336 176724.593468 0 0 0 0)
(176991.080329 -8235.19041722 0 -8235.19041722 176831.70487 0 0 0 0)
(176794.450895 -8499.77406958 0 -8499.77406958 176621.360226 0 0 0 0)
(176418.752664 -8726.89794556 0 -8726.89794556 176180.124453 0 0 0 0)
(175905.41989 -8918.93205854 0 -8918.93205854 175571.934369 0 0 0 0)
(175285.184468 -9079.69000578 0 -9079.69000578 174843.565436 0 0 0 0)
(174581.421427 -9213.46186514 0 -9213.46186514 174029.084082 0 0 0 0)
(173812.149772 -9324.52527011 0 -9324.52527011 173153.193023 0 0 0 0)
(172991.390552 -9416.88230026 0 -9416.88230026 172233.748186 0 0 0 0)
(172130.109365 -9494.12474333 0 -9494.12474333 171283.588136 0 0 0 0)
(171236.89118 -9559.37668067 0 -9559.37668067 170311.856789 0 0 0 0)
(170318.442494 -9615.28655111 0 -9615.28655111 169324.976339 0 0 0 0)
(169379.978897 -9664.0503182 0 -9664.0503182 168327.375301 0 0 0 0)
(168425.531986 -9707.45292684 0 -9707.45292684 167322.03683 0 0 0 0)
(167458.196588 -9746.91937651 0 -9746.91937651 166310.910957 0 0 0 0)
(166480.331647 -9783.5693903 0 -9783.5693903 165295.222479 0 0 0 0)
(165493.722788 -9818.27087744 0 -9818.27087744 164275.697896 0 0 0 0)
(164499.711505 -9851.68827933 0 -9851.68827933 163252.728827 0 0 0 0)
(163499.295565 -9884.32355448 0 -9884.32355448 162226.486319 0 0 0 0)
(162493.206542 -9916.54981626 0 -9916.54981626 161196.999178 0 0 0 0)
(161481.970994 -9948.63921594 0 -9948.63921594 160164.207939 0 0 0 0)
(160465.960163 -9980.78666628 0 -9980.78666628 159128.002932 0 0 0 0)
(159445.430377 -10013.1299114 0 -10013.1299114 158088.250993 0 0 0 0)
(158420.554401 -10045.7655711 0 -10045.7655711 157044.812796 0 0 0 0)
(157391.4441 -10078.7609174 0 -10078.7609174 155997.552268 0 0 0 0)
(156358.166004 -10112.1619597 0 -10112.1619597 154946.340346 0 0 0 0)
(155320.75222 -10145.9990514 0 -10145.9990514 153891.055737 0 0 0 0)
(154279.208869 -10180.2911777 0 -10180.2911777 152831.584769 0 0 0 0)
(153233.523108 -10215.0495321 0 -10215.0495321 151767.821234 0 0 0 0)
(152183.668888 -10250.2804499 0 -10250.2804499 150699.66617 0 0 0 0)
(151129.61124 -10285.9875729 0 -10285.9875729 149627.027243 0 0 0 0)
(150071.309096 -10322.1732281 0 -10322.1732281 148549.817662 0 0 0 0)
(149008.716944 -10358.8391874 0 -10358.8391874 147467.954807 0 0 0 0)
(147941.785758 -10395.9870521 0 -10395.9870521 146381.358874 0 0 0 0)
(146870.463569 -10433.6184701 0 -10433.6184701 145289.951753 0 0 0 0)
(145794.695886 -10471.7352971 0 -10471.7352971 144193.656184 0 0 0 0)
(144714.426072 -10510.3397419 0 -10510.3397419 143092.395134 0 0 0 0)
(143629.595687 -10549.4344946 0 -10549.4344946 141986.091332 0 0 0 0)
(142540.14482 -10589.0228197 0 -10589.0228197 140874.666906 0 0 0 0)
(141446.012384 -10629.1085912 0 -10629.1085912 139758.043077 0 0 0 0)
(140347.136356 -10669.6962539 0 -10669.6962539 138636.139912 0 0 0 0)
(139243.453928 -10710.790724 0 -10710.790724 137508.876105 0 0 0 0)
(138134.901507 -10752.3972768 0 -10752.3972768 136376.168778 0 0 0 0)
(137021.414493 -10794.5215016 0 -10794.5215016 135237.933245 0 0 0 0)
(135902.926772 -10837.1693951 0 -10837.1693951 134094.082704 0 0 0 0)
(134779.369989 -10880.3476089 0 -10880.3476089 132944.527846 0 0 0 0)
(133650.672785 -10924.0637679 0 -10924.0637679 131789.176415 0 0 0 0)
(132516.760399 -10968.3266817 0 -10968.3266817 130627.932862 0 0 0 0)
(131377.555051 -11013.1462392 0 -11013.1462392 129460.698246 0 0 0 0)
(130232.977346 -11058.5328667 0 -11058.5328667 128287.37052 0 0 0 0)
(129082.948411 -11104.4966404 0 -11104.4966404 127107.845176 0 0 0 0)
(127927.391929 -11151.0464093 0 -11151.0464093 125922.015964 0 0 0 0)
(126766.234831 -11198.1894464 0 -11198.1894464 124729.775219 0 0 0 0)
(125599.405676 -11245.9320678 0 -11245.9320678 123531.013335 0 0 0 0)
(124426.830673 -11294.2812688 0 -11294.2812688 122325.617188 0 0 0 0)
(123248.428693 -11343.2468495 0 -11343.2468495 121113.467877 0 0 0 0)
(122064.107672 -11392.8430176 0 -11392.8430176 119894.438646 0 0 0 0)
(120873.764895 -11443.0883943 0 -11443.0883943 118668.394129 0 0 0 0)
(119677.292249 -11494.0039003 0 -11494.0039003 117435.191675 0 0 0 0)
(118474.585093 -11545.6090305 0 -11545.6090305 116194.684635 0 0 0 0)
(117265.550985 -11597.9181051 0 -11597.9181051 114946.726235 0 0 0 0)
(116050.113508 -11650.9386283 0 -11650.9386283 113691.171747 0 0 0 0)
(114828.207759 -11704.6734363 0 -11704.6734363 112427.876574 0 0 0 0)
(113599.767729 -11759.1267613 0 -11759.1267613 111156.689114 0 0 0 0)
(112364.710635 -11814.312031 0 -11814.312031 109877.439978 0 0 0 0)
(111122.927267 -11870.2570417 0 -11870.2570417 108589.932684 0 0 0 0)
(109874.287961 -11927.0015049 0 -11927.0015049 107293.943357 0 0 0 0)
(108618.668399 -11984.5844857 0 -11984.5844857 105989.235137 0 0 0 0)
(107355.987632 -12043.0254513 0 -12043.0254513 104675.584425 0 0 0 0)
(106086.237342 -12102.3100726 0 -12102.3100726 103352.803217 0 0 0 0)
(104809.476863 -12162.3944986 0 -12162.3944986 102020.734226 0 0 0 0)
(103525.784077 -12223.2332609 0 -12223.2332609 100679.205764 0 0 0 0)
(102235.186717 -12284.8169982 0 -12284.8169982 99327.9639862 0 0 0 0)
(100937.629565 -12347.1895317 0 -12347.1895317 97966.6317984 0 0 0 0)
(99633.0273813 -12410.4179247 0 -12410.4179247 96594.7433869 0 0 0 0)
(98321.3983493 -12474.5203533 0 -12474.5203533 95211.854623 0 0 0 0)
(97003.002456 -12539.3948968 0 -12539.3948968 93817.6618304 0 0 0 0)
(95678.3881753 -12604.8015772 0 -12604.8015772 92412.0369427 0 0 0 0)
(94348.314124 -12670.4120817 0 -12670.4120817 90994.9428061 0 0 0 0)
(93013.6182025 -12735.8825061 0 -12735.8825061 89566.2921782 0 0 0 0)
(91675.1639806 -12800.8765336 0 -12800.8765336 88125.8744083 0 0 0 0)
(90333.949911 -12864.9976689 0 -12864.9976689 86673.4444315 0 0 0 0)
(88991.3585349 -12927.6535247 0 -12927.6535247 85208.9740838 0 0 0 0)
(87649.4357112 -12987.9194779 0 -12987.9194779 83732.9677463 0 0 0 0)
(86311.0837402 -13044.4615172 0 -13044.4615172 82246.7000145 0 0 0 0)
(84980.1404609 -13095.5242704 0 -13095.5242704 80752.3032413 0 0 0 0)
(83661.4752667 -13138.9185394 0 -13138.9185394 79252.8574401 0 0 0 0)
(82361.3753219 -13171.8987625 0 -13171.8987625 77752.9198051 0 0 0 0)
(81088.4723611 -13190.8567818 0 -13190.8567818 76260.0076431 0 0 0 0)
(79855.18851 -13190.8792065 0 -13190.8792065 74787.1471874 0 0 0 0)
(78679.3303149 -13165.3292983 0 -13165.3292983 73355.7333845 0 0 0 0)
(77585.5812835 -13105.5495478 0 -13105.5495478 71997.5094124 0 0 0 0)
(76608.6606967 -13000.5328038 0 -13000.5328038 70757.540057 0 0 0 0)
(75803.240059 -12836.1165137 0 -12836.1165137 69708.9307839 0 0 0 0)
(75273.0188977 -12597.187017 0 -12597.187017 68997.2947358 0 0 0 0)
(75181.968389 -12274.1594199 0 -12274.1594199 68868.3873324 0 0 0 0)
(75798.9686363 -11942.3948941 0 -11942.3948941 69603.0605206 0 0 0 0)
(174413.204221 6995.36179047 0 6995.36179047 173483.594381 0 0 0 0)
(175796.351083 7267.78433621 0 7267.78433621 175118.787907 0 0 0 0)
(176587.557829 7605.0739147 0 7605.0739147 176186.803885 0 0 0 0)
(176950.962046 7933.998336 0 7933.998336 176724.593468 0 0 0 0)
(176991.080329 8235.19041722 0 8235.19041722 176831.70487 0 0 0 0)
(176794.450895 8499.77406958 0 8499.77406958 176621.360226 0 0 0 0)
(176418.752664 8726.89794556 0 8726.89794556 176180.124453 0 0 0 0)
(175905.41989 8918.93205854 0 8918.93205854 175571.934369 0 0 0 0)
(175285.184468 9079.69000578 0 9079.69000578 174843.565436 0 0 0 0)
(174581.421427 9213.46186514 0 9213.46186514 174029.084082 0 0 0 0)
(173812.149772 9324.52527011 0 9324.52527011 173153.193023 0 0 0 0)
(172991.390552 9416.88230026 0 9416.88230026 172233.748186 0 0 0 0)
(172130.109365 9494.12474333 0 9494.12474333 171283.588136 0 0 0 0)
(171236.89118 9559.37668067 0 9559.37668067 170311.856789 0 0 0 0)
(170318.442494 9615.28655111 0 9615.28655111 169324.976339 0 0 0 0)
(169379.978897 9664.0503182 0 9664.0503182 168327.375301 0 0 0 0)
(168425.531986 9707.45292684 0 9707.45292684 167322.03683 0 0 0 0)
(167458.196588 9746.91937651 0 9746.91937651 166310.910957 0 0 0 0)
(166480.331647 9783.5693903 0 9783.5693903 165295.222479 0 0 0 0)
(165493.722788 9818.27087744 0 9818.27087744 164275.697896 0 0 0 0)
(164499.711505 9851.68827933 0 9851.68827933 163252.728827 0 0 0 0)
(163499.295565 9884.32355448 0 9884.32355448 162226.486319 0 0 0 0)
(162493.206542 9916.54981626 0 9916.54981626 161196.999178 0 0 0 0)
(161481.970994 9948.63921594 0 9948.63921594 160164.207939 0 0 0 0)
(160465.960163 9980.78666628 0 9980.78666628 159128.002932 0 0 0 0)
(159445.430377 10013.1299114 0 10013.1299114 158088.250993 0 0 0 0)
(158420.554401 10045.7655711 0 10045.7655711 157044.812796 0 0 0 0)
(157391.4441 10078.7609174 0 10078.7609174 155997.552268 0 0 0 0)
(156358.166004 10112.1619597 0 10112.1619597 154946.340346 0 0 0 0)
(155320.75222 10145.9990514 0 10145.9990514 153891.055737 0 0 0 0)
(154279.208869 10180.2911777 0 10180.2911777 152831.584769 0 0 0 0)
(153233.523108 10215.0495321 0 10215.0495321 151767.821234 0 0 0 0)
(152183.668888 10250.2804499 0 10250.2804499 150699.66617 0 0 0 0)
(151129.61124 10285.9875729 0 10285.9875729 149627.027243 0 0 0 0)
(150071.309096 10322.1732281 0 10322.1732281 148549.817662 0 0 0 0)
(149008.716944 10358.8391874 0 10358.8391874 147467.954807 0 0 0 0)
(147941.785758 10395.9870521 0 10395.9870521 146381.358874 0 0 0 0)
(146870.463569 10433.6184701 0 10433.6184701 145289.951753 0 0 0 0)
(145794.695886 10471.7352971 0 10471.7352971 144193.656184 0 0 0 0)
(144714.426072 10510.3397419 0 10510.3397419 143092.395134 0 0 0 0)
(143629.595687 10549.4344946 0 10549.4344946 141986.091332 0 0 0 0)
(142540.14482 10589.0228197 0 10589.0228197 140874.666906 0 0 0 0)
(141446.012384 10629.1085912 0 10629.1085912 139758.043077 0 0 0 0)
(140347.136356 10669.6962539 0 10669.6962539 138636.139912 0 0 0 0)
(139243.453928 10710.790724 0 10710.790724 137508.876105 0 0 0 0)
(138134.901507 10752.3972768 0 10752.3972768 136376.168778 0 0 0 0)
(137021.414493 10794.5215016 0 10794.5215016 135237.933245 0 0 0 0)
(135902.926772 10837.1693951 0 10837.1693951 134094.082704 0 0 0 0)
(134779.369989 10880.3476089 0 10880.3476089 132944.527846 0 0 0 0)
(133650.672785 10924.0637679 0 10924.0637679 131789.176415 0 0 0 0)
(132516.760399 10968.3266817 0 10968.3266817 130627.932862 0 0 0 0)
(131377.555051 11013.1462392 0 11013.1462392 129460.698246 0 0 0 0)
(130232.977346 11058.5328667 0 11058.5328667 128287.37052 0 0 0 0)
(129082.948411 11104.4966404 0 11104.4966404 127107.845176 0 0 0 0)
(127927.391929 11151.0464093 0 11151.0464093 125922.015964 0 0 0 0)
(126766.234831 11198.1894464 0 11198.1894464 124729.775219 0 0 0 0)
(125599.405676 11245.9320678 0 11245.9320678 123531.013335 0 0 0 0)
(124426.830673 11294.2812688 0 11294.2812688 122325.617188 0 0 0 0)
(123248.428693 11343.2468495 0 11343.2468495 121113.467877 0 0 0 0)
(122064.107672 11392.8430176 0 11392.8430176 119894.438646 0 0 0 0)
(120873.764895 11443.0883943 0 11443.0883943 118668.394129 0 0 0 0)
(119677.292249 11494.0039003 0 11494.0039003 117435.191675 0 0 0 0)
(118474.585093 11545.6090305 0 11545.6090305 116194.684635 0 0 0 0)
(117265.550985 11597.9181051 0 11597.9181051 114946.726235 0 0 0 0)
(116050.113508 11650.9386283 0 11650.9386283 113691.171747 0 0 0 0)
(114828.207759 11704.6734363 0 11704.6734363 112427.876574 0 0 0 0)
(113599.767729 11759.1267613 0 11759.1267613 111156.689114 0 0 0 0)
(112364.710635 11814.312031 0 11814.312031 109877.439978 0 0 0 0)
(111122.927267 11870.2570417 0 11870.2570417 108589.932684 0 0 0 0)
(109874.287961 11927.0015049 0 11927.0015049 107293.943357 0 0 0 0)
(108618.668399 11984.5844857 0 11984.5844857 105989.235137 0 0 0 0)
(107355.987632 12043.0254513 0 12043.0254513 104675.584425 0 0 0 0)
(106086.237342 12102.3100726 0 12102.3100726 103352.803217 0 0 0 0)
(104809.476863 12162.3944986 0 12162.3944986 102020.734226 0 0 0 0)
(103525.784077 12223.2332609 0 12223.2332609 100679.205764 0 0 0 0)
(102235.186717 12284.8169982 0 12284.8169982 99327.9639862 0 0 0 0)
(100937.629565 12347.1895317 0 12347.1895317 97966.6317984 0 0 0 0)
(99633.0273813 12410.4179247 0 12410.4179247 96594.7433869 0 0 0 0)
(98321.3983493 12474.5203533 0 12474.5203533 95211.854623 0 0 0 0)
(97003.002456 12539.3948968 0 12539.3948968 93817.6618304 0 0 0 0)
(95678.3881753 12604.8015772 0 12604.8015772 92412.0369427 0 0 0 0)
(94348.314124 12670.4120817 0 12670.4120817 90994.9428061 0 0 0 0)
(93013.6182025 12735.8825061 0 12735.8825061 89566.2921782 0 0 0 0)
(91675.1639806 12800.8765336 0 12800.8765336 88125.8744083 0 0 0 0)
(90333.949911 12864.9976689 0 12864.9976689 86673.4444315 0 0 0 0)
(88991.3585349 12927.6535247 0 12927.6535247 85208.9740838 0 0 0 0)
(87649.4357112 12987.9194779 0 12987.9194779 83732.9677463 0 0 0 0)
(86311.0837402 13044.4615172 0 13044.4615172 82246.7000145 0 0 0 0)
(84980.1404609 13095.5242704 0 13095.5242704 80752.3032413 0 0 0 0)
(83661.4752667 13138.9185394 0 13138.9185394 79252.8574401 0 0 0 0)
(82361.3753219 13171.8987625 0 13171.8987625 77752.9198051 0 0 0 0)
(81088.4723611 13190.8567818 0 13190.8567818 76260.0076431 0 0 0 0)
(79855.18851 13190.8792065 0 13190.8792065 74787.1471874 0 0 0 0)
(78679.3303149 13165.3292983 0 13165.3292983 73355.7333845 0 0 0 0)
(77585.5812835 13105.5495478 0 13105.5495478 71997.5094124 0 0 0 0)
(76608.6606967 13000.5328038 0 13000.5328038 70757.540057 0 0 0 0)
(75803.240059 12836.1165137 0 12836.1165137 69708.9307839 0 0 0 0)
(75273.0188977 12597.187017 0 12597.187017 68997.2947358 0 0 0 0)
(75181.968389 12274.1594199 0 12274.1594199 68868.3873324 0 0 0 0)
(75798.9686363 11942.3948941 0 11942.3948941 69603.0605206 0 0 0 0)
)
;
    }
    inlet
    {
        type            calculated;
        value           uniform (0 0 0 0 0 0 0 0 0);
    }
    outlet
    {
        type            calculated;
        value           uniform (0 0 0 0 0 0 0 0 0);
    }
    frontAndBackPlanes
    {
        type            empty;
    }
}


// ************************************************************************* //
