/*--------------------------------*- C++ -*----------------------------------*\
  =========                 |
  \\      /  F ield         | OpenFOAM: The Open Source CFD Toolbox
   \\    /   O peration     | Website:  https://openfoam.org
    \\  /    A nd           | Version:  6
     \\/     M anipulation  |
\*---------------------------------------------------------------------------*/
FoamFile
{
    version     2.0;
    format      ascii;
    class       volVectorField;
    location    "3.67516512e-08";
    object      U;
}
// * * * * * * * * * * * * * * * * * * * * * * * * * * * * * * * * * * * * * //

dimensions      [0 1 -1 0 0 0 0];

internalField   nonuniform List<vector> 
6000
(
(18.2299147961 1.0957068223 0)
(16.7639065891 0.0977268590187 0)
(16.6596118763 -0.109743941903 0)
(17.0960532597 -0.113314156728 0)
(17.6758965102 -0.0964739196327 0)
(18.2608987696 -0.0836260133657 0)
(18.8128117223 -0.0730901307371 0)
(19.3209174054 -0.0634900818153 0)
(19.7834377132 -0.0547216472898 0)
(20.2024707725 -0.0469293711705 0)
(20.5821164472 -0.0401817731692 0)
(20.9273972318 -0.0344601478701 0)
(21.2435852108 -0.0296948666241 0)
(21.5357949136 -0.025791177623 0)
(21.8087518415 -0.0226440740144 0)
(22.0666750346 -0.020147322197 0)
(22.3132342847 -0.0181993783682 0)
(22.5515564044 -0.0167072781525 0)
(22.7842625653 -0.0155888592877 0)
(23.0135227298 -0.0147734763901 0)
(23.2411161532 -0.0142015099246 0)
(23.4684904546 -0.0138232141683 0)
(23.6968157531 -0.0135974886158 0)
(23.9270334388 -0.0134908860237 0)
(24.1599001726 -0.0134767933993 0)
(24.3960270735 -0.0135345471231 0)
(24.6359132117 -0.0136483657202 0)
(24.8799726536 -0.0138062202431 0)
(25.1285553131 -0.0139988696972 0)
(25.3819628928 -0.0142191971384 0)
(25.6404614827 -0.0144618103044 0)
(25.9042919471 -0.0147227708979 0)
(26.1736785648 -0.0149993372122 0)
(26.4488359881 -0.0152896872249 0)
(26.7299745587 -0.0155926530455 0)
(27.0173041882 -0.0159075088562 0)
(27.3110371599 -0.0162338301877 0)
(27.6113902294 -0.0165714147014 0)
(27.9185863233 -0.016920241562 0)
(28.2328560176 -0.0172804473453 0)
(28.5544388745 -0.0176523034147 0)
(28.8835846427 -0.0180361874952 0)
(29.2205542985 -0.0184325496326 0)
(29.5656209184 -0.0188418796371 0)
(29.9190704328 -0.0192646877297 0)
(30.2812023801 -0.0197015095219 0)
(30.6523308301 -0.0201529386738 0)
(31.0327856218 -0.0206196765545 0)
(31.4229139381 -0.0211025729874 0)
(31.8230820461 -0.0216026241333 0)
(32.2336768318 -0.0221209017536 0)
(32.6551066909 -0.0226584167436 0)
(33.0878015084 -0.0232159625185 0)
(33.532211901 -0.023794021089 0)
(33.9888084715 -0.0243928194718 0)
(34.4580822412 -0.0250125762094 0)
(34.9405473508 -0.0256538814055 0)
(35.4367463421 -0.0263180469976 0)
(35.9472570313 -0.0270072098981 0)
(36.472698703 -0.0277240261723 0)
(37.0137348954 -0.0284709707586 0)
(37.5710710112 -0.0292494939686 0)
(38.1454473609 -0.0300594627797 0)
(38.7376311441 -0.0308993047756 0)
(39.3484127936 -0.0317670129928 0)
(39.9786115251 -0.0326617119561 0)
(40.6290911299 -0.0335849973984 0)
(41.3007807728 -0.0345410026637 0)
(41.9946893604 -0.0355344122428 0)
(42.7119000641 -0.0365666492316 0)
(43.4535381601 -0.0376320376663 0)
(44.2207215807 -0.0387169745424 0)
(45.0145228289 -0.0398045071944 0)
(45.8359775426 -0.0408832147717 0)
(46.6861527959 -0.0419543493934 0)
(47.566238392 -0.0430291209139 0)
(48.4775787643 -0.0441130432102 0)
(49.4215703224 -0.0451851660057 0)
(50.3994298027 -0.0461880094555 0)
(51.4119460514 -0.0470391930653 0)
(52.4593643664 -0.0476583904027 0)
(53.5414593206 -0.0479873662876 0)
(54.6576817575 -0.0479822860088 0)
(55.8071564393 -0.0475771315496 0)
(56.9883588496 -0.0466390634329 0)
(58.1984812209 -0.0449436370446 0)
(59.4326747591 -0.0421840641963 0)
(60.6833897619 -0.0379994958982 0)
(61.9398592797 -0.0319793345463 0)
(63.187446634 -0.0236052867217 0)
(64.4063617257 -0.0121540305053 0)
(65.5694969298 0.00333133551975 0)
(66.6398374191 0.0239017159659 0)
(67.5682559888 0.0506416576268 0)
(68.2913229129 0.0860141678404 0)
(68.7297864914 0.138885682404 0)
(68.8124677776 0.225513909503 0)
(68.6746745119 0.287323430732 0)
(69.3047306944 -0.256480213722 0)
(73.4868315396 -3.3747272582 0)
(24.356895004 2.53833412033 0)
(22.2618344751 0.573524914851 0)
(21.6119431744 -0.131055423039 0)
(21.7949725849 -0.289391157288 0)
(22.3191876622 -0.298034150882 0)
(22.9384478502 -0.274809321525 0)
(23.5578544458 -0.245150428044 0)
(24.1425526194 -0.214510296563 0)
(24.6807945756 -0.185082110991 0)
(25.1705111161 -0.158167207781 0)
(25.6142660912 -0.134430640771 0)
(26.0168807344 -0.114073402744 0)
(26.3841141919 -0.0970045947383 0)
(26.7218862535 -0.0829685730143 0)
(27.0358283541 -0.0716282997035 0)
(27.3310438232 -0.0626184000087 0)
(27.6120029797 -0.0555786604335 0)
(27.8825241817 -0.0501745616712 0)
(28.1458071977 -0.0461085126096 0)
(28.4044946853 -0.0431239639572 0)
(28.6607445705 -0.0410043921452 0)
(28.9163026035 -0.0395694990463 0)
(29.1725701276 -0.0386708365964 0)
(29.4306658284 -0.0381880457287 0)
(29.691481359 -0.0380256199113 0)
(29.9557302415 -0.0381095055594 0)
(30.2239890156 -0.038383205075 0)
(30.4967301732 -0.0388037648201 0)
(30.7743476357 -0.0393383528274 0)
(31.0571764459 -0.0399618434137 0)
(31.3455084178 -0.0406552940929 0)
(31.6396049025 -0.0414048889144 0)
(31.9397071736 -0.0422009802596 0)
(32.2460445931 -0.0430371118589 0)
(32.5588407451 -0.043909104202 0)
(32.8783178823 -0.0448143239403 0)
(33.2047001447 -0.0457511894056 0)
(33.5382159862 -0.0467188813113 0)
(33.8791001385 -0.047717186483 0)
(34.2275953034 -0.0487464034842 0)
(34.5839536488 -0.0498072599451 0)
(34.9484381134 -0.0509008162424 0)
(35.3213235014 -0.0520283544944 0)
(35.7028973697 -0.0531912740193 0)
(36.0934607681 -0.0543910287784 0)
(36.4933289538 -0.0556291402591 0)
(36.902832252 -0.0569072951883 0)
(37.3223172244 -0.0582274947779 0)
(37.7521482194 -0.0595921761942 0)
(38.1927092104 -0.0610042031138 0)
(38.6444056154 -0.0624666476879 0)
(39.1076656451 -0.0639823737057 0)
(39.582940768 -0.0655535606531 0)
(40.0707052052 -0.0671814213897 0)
(40.5714549358 -0.0688663799309 0)
(41.0857072825 -0.0706088285749 0)
(41.6140023928 -0.0724102882812 0)
(42.1569075031 -0.0742744701427 0)
(42.7150237024 -0.0762075724682 0)
(43.2889933913 -0.078217322671 0)
(43.8795055413 -0.0803108192601 0)
(44.487296056 -0.0824919583756 0)
(45.1131424365 -0.0847597667732 0)
(45.7578550611 -0.0871089137355 0)
(46.4222702839 -0.0895328469007 0)
(47.1072513565 -0.0920285641001 0)
(47.8137004739 -0.0946005468971 0)
(48.5425791235 -0.0972606673044 0)
(49.2949265896 -0.100021839532 0)
(50.0718622584 -0.10288637181 0)
(50.8745612945 -0.105834701817 0)
(51.7042077351 -0.108823631893 0)
(52.5619492738 -0.111800814461 0)
(53.4488897263 -0.114731454886 0)
(54.3661408261 -0.117618580093 0)
(55.3149100603 -0.120492732504 0)
(56.2965502158 -0.123362862273 0)
(57.3124867444 -0.126153230773 0)
(58.3640032537 -0.128674638539 0)
(59.4519744219 -0.130662601061 0)
(60.5766993578 -0.131861483655 0)
(61.7379274231 -0.132085128622 0)
(62.9350031584 -0.131190173737 0)
(64.1669148516 -0.1289613023 0)
(65.4320423824 -0.124977798967 0)
(66.7275752009 -0.118551429043 0)
(68.0487857819 -0.108778560423 0)
(69.3884275063 -0.0946570659884 0)
(70.736373147 -0.0751376351423 0)
(72.0792734535 -0.0490001246321 0)
(73.3997699579 -0.0146261456576 0)
(74.6750318056 0.0300369694719 0)
(75.8751986898 0.0871084648837 0)
(76.9632442189 0.158595854425 0)
(77.8989965005 0.24800296569 0)
(78.6587091065 0.360418331773 0)
(79.3167984927 0.462903986921 0)
(80.3269487711 0.259384520574 0)
(83.0197467935 -1.45996205149 0)
(89.6404763544 -7.15994305155 0)
(29.4132746989 3.82844245359 0)
(27.2062818072 1.16788672197 0)
(26.2469349872 -0.0309306628468 0)
(26.203746504 -0.41001814871 0)
(26.6312740724 -0.486545121173 0)
(27.2361199931 -0.470722656919 0)
(27.8804362854 -0.427998865362 0)
(28.5063618194 -0.377741563403 0)
(29.0914777492 -0.327164456566 0)
(29.6287386185 -0.279779446945 0)
(30.118309134 -0.237354599284 0)
(30.5639208959 -0.200597912498 0)
(30.9709860781 -0.16956110939 0)
(31.3455073645 -0.143910665755 0)
(31.6934306128 -0.123108114596 0)
(32.0202765596 -0.106528016493 0)
(32.3309565058 -0.0935337050856 0)
(32.6297083588 -0.0835239594122 0)
(32.9201074621 -0.0759587759179 0)
(33.2051190378 -0.0703697317508 0)
(33.4871692997 -0.0663598141967 0)
(33.768221383 -0.0635976833211 0)
(34.0498493289 -0.0618105131162 0)
(34.3333073743 -0.0607774503767 0)
(34.6195929763 -0.0603235469548 0)
(34.9095019595 -0.0603131921253 0)
(35.203674522 -0.060642767104 0)
(35.5026320116 -0.0612333457153 0)
(35.8068057026 -0.0620246094194 0)
(36.1165594459 -0.0629705450227 0)
(36.4322078488 -0.0640366257991 0)
(36.7540309925 -0.0651977483207 0)
(37.0822861583 -0.0664363574336 0)
(37.4172168553 -0.0677406094133 0)
(37.7590595212 -0.0691027179412 0)
(38.1080483994 -0.0705176650958 0)
(38.4644191326 -0.0719823369331 0)
(38.8284115315 -0.073495012715 0)
(39.2002718326 -0.0750550777133 0)
(39.5802546151 -0.0766628374788 0)
(39.9686244379 -0.078319350665 0)
(40.3656572092 -0.0800262420614 0)
(40.7716412992 -0.0817854982906 0)
(41.1868784353 -0.0835992818274 0)
(41.6116844594 -0.0854698178178 0)
(42.0463900565 -0.0873994036101 0)
(42.4913415898 -0.0893905571664 0)
(42.9469021744 -0.0914462605649 0)
(43.4134530888 -0.0935701852399 0)
(43.8913955303 -0.0957667388904 0)
(44.3811525528 -0.0980407919648 0)
(44.8831708487 -0.100397054956 0)
(45.3979219212 -0.102839275108 0)
(45.9259023107 -0.105369626623 0)
(46.4676329266 -0.107988752747 0)
(47.0236581548 -0.110696757983 0)
(47.5945459561 -0.113495017572 0)
(48.1808902645 -0.116388111049 0)
(48.7833163205 -0.119384795289 0)
(49.4024881903 -0.12249703771 0)
(50.0391161555 -0.125736883467 0)
(50.693960843 -0.12911213074 0)
(51.3678317288 -0.132622870664 0)
(52.0615801797 -0.136261201986 0)
(52.7760906034 -0.140015374472 0)
(53.5122757287 -0.143877345459 0)
(54.2710815189 -0.147850060827 0)
(55.0535027373 -0.151949102169 0)
(55.8606028352 -0.156194321111 0)
(56.6935252591 -0.160591834598 0)
(57.5534827212 -0.165114482964 0)
(58.4417206009 -0.169695296884 0)
(59.3594691087 -0.174246446914 0)
(60.3079157719 -0.178700454429 0)
(61.2882280568 -0.183046610985 0)
(62.3016238559 -0.187323037738 0)
(63.3494364762 -0.19154497883 0)
(64.4330902461 -0.195601115598 0)
(65.553935957 -0.199193591149 0)
(66.7129917445 -0.201883583189 0)
(67.9107263631 -0.203223807477 0)
(69.1470142102 -0.202872673651 0)
(70.421257634 -0.200576309335 0)
(71.7325037421 -0.195997296599 0)
(73.0793289108 -0.188492866149 0)
(74.4593954573 -0.176999444326 0)
(75.8688163676 -0.160114921469 0)
(77.3016059503 -0.136312220795 0)
(78.7493864005 -0.10406721751 0)
(80.2011735055 -0.0616996330574 0)
(81.6427617288 -0.00701357356952 0)
(83.0554553552 0.0627893056713 0)
(84.4149853312 0.150499528393 0)
(85.6934391474 0.258048734811 0)
(86.8709209498 0.385641980042 0)
(87.9761091521 0.519179432891 0)
(89.2019275738 0.54425796146 0)
(91.1641251036 -0.0660587143637 0)
(95.1047791772 -2.87221718241 0)
(102.390826132 -10.2025626481 0)
(33.7397559209 4.91676683619 0)
(31.6768037335 1.79106987858 0)
(30.5864120227 0.160980780361 0)
(30.3635522019 -0.468401914789 0)
(30.6742673492 -0.648132409403 0)
(31.2293751354 -0.659354764874 0)
(31.8655618043 -0.612019740171 0)
(32.5046297428 -0.545363446543 0)
(33.1129388885 -0.474631096755 0)
(33.6778685763 -0.406759532044 0)
(34.1967763708 -0.34512918301 0)
(34.6719124354 -0.291214305357 0)
(35.1079042423 -0.245364057575 0)
(35.510379407 -0.207262678184 0)
(35.8851627845 -0.176225470395 0)
(36.2378088887 -0.15139391516 0)
(36.5733500841 -0.131863373205 0)
(36.8961873402 -0.116763267863 0)
(37.2100717328 -0.105302393823 0)
(37.5181385819 -0.0967886649694 0)
(37.8229679725 -0.0906318238288 0)
(38.1266558761 -0.0863372203988 0)
(38.4308876217 -0.0834968382883 0)
(38.7370092411 -0.0817803658784 0)
(39.0460933684 -0.0809261650546 0)
(39.3589969448 -0.080731155154 0)
(39.6764092432 -0.0810397005909 0)
(39.9988904734 -0.0817328968225 0)
(40.3269025182 -0.0827198076438 0)
(40.6608336378 -0.0839312288156 0)
(41.0010185094 -0.0853154268571 0)
(41.3477543454 -0.086834862492 0)
(41.701313516 -0.0884632117421 0)
(42.0619531053 -0.0901825522202 0)
(42.4299219701 -0.0919809219928 0)
(42.8054659425 -0.0938504636523 0)
(43.1888317686 -0.0957861898304 0)
(43.5802702207 -0.0977852416059 0)
(43.9800386541 -0.0998464473118 0)
(44.3884031359 -0.101970012885 0)
(44.8056401926 -0.104157237389 0)
(45.2320382132 -0.106410212662 0)
(45.667898561 -0.10873151896 0)
(46.1135364839 -0.111123963842 0)
(46.5692819206 -0.113590426033 0)
(47.0354802931 -0.116133856616 0)
(47.5124933625 -0.118757454167 0)
(48.0007002265 -0.121464969025 0)
(48.5004985546 -0.124261014505 0)
(49.0123061437 -0.127151197571 0)
(49.5365628028 -0.130141875818 0)
(50.0737324052 -0.133239450928 0)
(50.6243047374 -0.136449332578 0)
(51.1887966581 -0.139774985458 0)
(51.7677522148 -0.143217654996 0)
(52.3617418383 -0.146777275795 0)
(52.9713614339 -0.150454605404 0)
(53.5972327674 -0.154253899818 0)
(54.2400065466 -0.158184794348 0)
(54.9003687048 -0.162261931248 0)
(55.5790487471 -0.16650160515 0)
(56.276827339 -0.1709161892 0)
(56.9945396787 -0.175508740041 0)
(57.7330724737 -0.180270992901 0)
(58.4933554861 -0.185187101397 0)
(59.2763523222 -0.19024276402 0)
(60.08305717 -0.195435639989 0)
(60.9145024589 -0.200780025327 0)
(61.7717764272 -0.206299031457 0)
(62.6560414784 -0.212002891128 0)
(63.5685387897 -0.217862046567 0)
(64.5105675593 -0.223793381282 0)
(65.4834413637 -0.229677980757 0)
(66.4884443563 -0.235411178331 0)
(67.5268217722 -0.240954634182 0)
(68.5998245944 -0.246338756343 0)
(69.708783493 -0.251581610328 0)
(70.8551384596 -0.256552986535 0)
(72.0403465774 -0.260877202882 0)
(73.265660817 -0.263967318105 0)
(74.5318816175 -0.265189708705 0)
(75.8392340443 -0.264034912933 0)
(77.1874412669 -0.260132813807 0)
(78.5758883349 -0.253053138698 0)
(80.0036458886 -0.242005576551 0)
(81.4691801247 -0.225656229052 0)
(82.9697877861 -0.202211634804 0)
(84.5009799996 -0.169703795927 0)
(86.0559982289 -0.126180277039 0)
(87.6253611018 -0.0695023033284 0)
(89.1961122696 0.00314421661886 0)
(90.7508320237 0.0953196304653 0)
(92.2679775409 0.210143131023 0)
(93.7279532752 0.347582117569 0)
(95.1342879756 0.497966425355 0)
(96.5694655844 0.612671438167 0)
(98.311538697 0.482763134764 0)
(101.000585839 -0.588396381675 0)
(105.575701194 -4.25051548979 0)
(112.645984592 -12.4355183191 0)
(37.5745248383 5.81975859362 0)
(35.7574457848 2.39488670647 0)
(34.6530755995 0.414896420494 0)
(34.3049842529 -0.464979240194 0)
(34.4993511908 -0.772412461407 0)
(34.9841182371 -0.830366062147 0)
(35.589081526 -0.789208087335 0)
(36.2211003288 -0.711232950036 0)
(36.8355647536 -0.622576231463 0)
(37.4135999028 -0.535106369363 0)
(37.9492743676 -0.454503326212 0)
(38.4431040608 -0.383325173499 0)
(38.8987636344 -0.322380799845 0)
(39.3213371671 -0.271465324788 0)
(39.7163394713 -0.229804939775 0)
(40.0891594823 -0.196343000779 0)
(40.4447572484 -0.16992692247 0)
(40.7875213939 -0.149426591713 0)
(41.1212271894 -0.133802521704 0)
(41.4490537464 -0.122137367697 0)
(41.7736327726 -0.113643396736 0)
(42.0971125138 -0.107657344627 0)
(42.4212277509 -0.103630750994 0)
(42.7473699289 -0.101119169762 0)
(43.0766526287 -0.0997701909843 0)
(43.4099688535 -0.0993096006416 0)
(43.748038698 -0.0995264272278 0)
(44.0914480564 -0.10025890842 0)
(44.4406800855 -0.101383187526 0)
(44.79614102 -0.102805173835 0)
(45.1581812781 -0.104454728598 0)
(45.5271123119 -0.106280996524 0)
(45.9032195993 -0.108248172054 0)
(46.2867723612 -0.110331633312 0)
(46.6780307546 -0.112514703996 0)
(47.0772512848 -0.114786248892 0)
(47.4846910282 -0.117139082486 0)
(47.900611047 -0.119568988694 0)
(48.3252791963 -0.122074097307 0)
(48.7589724062 -0.124654412165 0)
(49.2019784892 -0.12731137533 0)
(49.6545975433 -0.130047434992 0)
(50.117143061 -0.132865642012 0)
(50.5899428753 -0.135769327548 0)
(51.0733400495 -0.138761916895 0)
(51.5676937707 -0.141846919515 0)
(52.0733802633 -0.145028105013 0)
(52.5907937391 -0.1483098261 0)
(53.1203474511 -0.151697380207 0)
(53.6624749859 -0.155197226618 0)
(54.2176319438 -0.15881683985 0)
(54.7862980512 -0.162564044945 0)
(55.3689795099 -0.166445886949 0)
(55.9662110933 -0.170467400312 0)
(56.5785573562 -0.174630923552 0)
(57.2066125182 -0.178936638884 0)
(57.850999222 -0.183384635084 0)
(58.5123672672 -0.187978013669 0)
(59.1913940977 -0.192725684471 0)
(59.888788704 -0.197643049107 0)
(60.6052993407 -0.202749245004 0)
(61.3417233471 -0.208061137802 0)
(62.0989154041 -0.213586298012 0)
(62.8777901209 -0.21931870161 0)
(63.6793168455 -0.2252406555 0)
(64.5045086837 -0.231331837759 0)
(65.3544120042 -0.237581914333 0)
(66.2301044007 -0.243998916694 0)
(67.1327059273 -0.250604444446 0)
(68.0634004104 -0.257411620973 0)
(69.0234541545 -0.264392958875 0)
(70.0142147868 -0.271458070025 0)
(71.0370800655 -0.278464857155 0)
(72.0934466111 -0.285271543147 0)
(73.184671732 -0.291801717839 0)
(74.3120866357 -0.298063543429 0)
(75.4770679411 -0.30407353058 0)
(76.6811148977 -0.309700687617 0)
(77.92583825 -0.314530284654 0)
(79.2127987433 -0.317867863819 0)
(80.5432427459 -0.318913074064 0)
(81.9178876448 -0.316980928053 0)
(83.3368972554 -0.311569441276 0)
(84.8000297235 -0.302163172037 0)
(86.3067538348 -0.287871735984 0)
(87.8560843647 -0.267161397353 0)
(89.4460389174 -0.237894586745 0)
(91.0728426233 -0.197635035855 0)
(92.7301120621 -0.143880296985 0)
(94.4081787241 -0.0738695454253 0)
(96.0936820537 0.0158727039206 0)
(97.7700361707 0.129278570261 0)
(99.4208158596 0.26840480715 0)
(101.040824218 0.42778287273 0)
(102.6638874 0.58082178952 0)
(104.421270291 0.635762092153 0)
(106.631945277 0.299150766361 0)
(109.862594491 -1.21523951194 0)
(114.705847524 -5.48141286621 0)
(121.253582912 -14.0170432994 0)
(41.0546015392 6.55723542714 0)
(39.5197111512 2.95008262879 0)
(38.4781666435 0.700583859442 0)
(38.0592395304 -0.40957453175 0)
(38.1521066696 -0.855663602762 0)
(38.5574649385 -0.97617214496 0)
(39.1145446723 -0.952487931541 0)
(39.7231798931 -0.869670156359 0)
(40.3299319209 -0.766501374718 0)
(40.909575056 -0.661181797085 0)
(41.4523390142 -0.562487935176 0)
(41.9565609744 -0.474471567919 0)
(42.4246867958 -0.398608586218 0)
(42.8610869761 -0.334913018538 0)
(43.2708422541 -0.282582114225 0)
(43.6590665063 -0.24039746031 0)
(44.0305425544 -0.206981801093 0)
(44.3895462345 -0.180960427957 0)
(44.7397834568 -0.161054551759 0)
(45.0843926589 -0.146126233555 0)
(45.4259833309 -0.135192117755 0)
(45.7666936015 -0.127420697682 0)
(46.108256706 -0.122122852692 0)
(46.4520689244 -0.118739529449 0)
(46.7992530336 -0.11682677356 0)
(47.1507134721 -0.116038093117 0)
(47.5071822121 -0.116105781883 0)
(47.8692564758 -0.116823836144 0)
(48.2374300521 -0.118034348486 0)
(48.6121194301 -0.11961753809 0)
(48.9936852238 -0.121484300734 0)
(49.3824490991 -0.123570011618 0)
(49.7787066311 -0.125828943347 0)
(50.1827368499 -0.128229330282 0)
(50.5948093733 -0.130749368229 0)
(51.015189917 -0.133374304934 0)
(51.4441447184 -0.136094512812 0)
(51.8819441655 -0.138904259541 0)
(52.3288657516 -0.14180086945 0)
(52.7851964139 -0.144784052041 0)
(53.2512343295 -0.147855288938 0)
(53.7272902921 -0.151017264091 0)
(54.2136888302 -0.154273373149 0)
(54.7107692189 -0.157627359278 0)
(55.2188864834 -0.161083110452 0)
(55.7384124135 -0.164644634549 0)
(56.2697365529 -0.168316210143 0)
(56.8132671274 -0.172102684206 0)
(57.3694319462 -0.176009838087 0)
(57.9386794227 -0.180044669895 0)
(58.5214799573 -0.184215378086 0)
(59.118327906 -0.188530843767 0)
(59.7297441592 -0.192999562555 0)
(60.3562789871 -0.197628276418 0)
(60.9985144217 -0.202420898365 0)
(61.6570653092 -0.207378500005 0)
(62.3325785483 -0.212500917899 0)
(63.0257309721 -0.217789840952 0)
(63.7372275271 -0.22325226042 0)
(64.4678021432 -0.228902391164 0)
(65.2182232404 -0.23476021967 0)
(65.989303889 -0.240846068482 0)
(66.7819138168 -0.247172741099 0)
(67.5969882322 -0.253738939922 0)
(68.4355285334 -0.2605283181 0)
(69.2985932789 -0.26751660825 0)
(70.1872834006 -0.274684776398 0)
(71.1027306962 -0.282030785733 0)
(72.0460994815 -0.289569613185 0)
(73.0186054104 -0.297314355393 0)
(74.0215438567 -0.305242237949 0)
(75.0563087135 -0.313264367386 0)
(76.1243805951 -0.321226360536 0)
(77.227279109 -0.328955132188 0)
(78.366504011 -0.33633159456 0)
(79.5435140505 -0.343329498129 0)
(80.7597801934 -0.349956642564 0)
(82.0168899203 -0.35609379207 0)
(83.3166063062 -0.361322576468 0)
(84.6607719265 -0.364882921762 0)
(86.0510395654 -0.365828682513 0)
(87.4885591143 -0.363282964565 0)
(88.9738181521 -0.356570257234 0)
(90.5067226485 -0.345056812896 0)
(92.0867705647 -0.327753253976 0)
(93.7130067861 -0.302949263142 0)
(95.3835151356 -0.268158629831 0)
(97.0944916887 -0.220399551709 0)
(98.8392835685 -0.156501079721 0)
(100.607979213 -0.0730837640758 0)
(102.388166852 0.0335831481887 0)
(104.167616971 0.166683161594 0)
(105.940489482 0.325098785965 0)
(107.720916676 0.494579338936 0)
(109.571271455 0.627548845694 0)
(111.652336161 0.589737168187 0)
(114.277332738 0.0267385047448 0)
(117.887510779 -1.86843618229 0)
(122.77191237 -6.51729802213 0)
(128.713338258 -15.093422003 0)
(44.2567064403 7.14776579768 0)
(43.010164029 3.44254760274 0)
(42.0797582328 0.994875433663 0)
(41.638291325 -0.31493489638 0)
(41.6534230737 -0.899176025777 0)
(41.981054617 -1.09248221218 0)
(42.4807191085 -1.09638142948 0)
(43.0533273835 -1.01578791901 0)
(43.6403802545 -0.902469732051 0)
(44.2114108383 -0.781881296021 0)
(44.7527967064 -0.666614661322 0)
(45.2603662458 -0.56266345313 0)
(45.735004982 -0.472428884927 0)
(46.1801190578 -0.396288022179 0)
(46.6001800437 -0.3334894629 0)
(46.999902062 -0.282699573571 0)
(47.3837955362 -0.242345428245 0)
(47.7559456668 -0.210826824534 0)
(48.1199223578 -0.186638279551 0)
(48.4787650653 -0.168429337209 0)
(48.8350099603 -0.155026225801 0)
(49.1907408764 -0.145432892587 0)
(49.5476520855 -0.138822496699 0)
(49.9071135612 -0.134523692359 0)
(50.2702316324 -0.132002522749 0)
(50.6379012246 -0.130840954579 0)
(51.010849306 -0.130714702799 0)
(51.3896711216 -0.131373445228 0)
(51.774860867 -0.13262516906 0)
(52.1668375571 -0.134324434183 0)
(52.5659661473 -0.136363212068 0)
(52.9725739863 -0.138663065471 0)
(53.3869631416 -0.141168186225 0)
(53.8094195376 -0.143839429054 0)
(54.2402199049 -0.146649619068 0)
(54.679637304 -0.149580192789 0)
(55.1279456595 -0.152618952218 0)
(55.5854234798 -0.155758567749 0)
(56.0523568248 -0.15899548934 0)
(56.5290415836 -0.162329045935 0)
(57.0157851872 -0.165760645437 0)
(57.5129079422 -0.169293078229 0)
(58.0207441786 -0.172929961505 0)
(58.5396433585 -0.176675353507 0)
(59.0699712096 -0.180533542699 0)
(59.6121108611 -0.184509000427 0)
(60.1664639095 -0.188606483125 0)
(60.733451347 -0.192831267862 0)
(61.3135143583 -0.197189478688 0)
(61.9071151162 -0.201688398435 0)
(62.5147378481 -0.206336581245 0)
(63.1368905123 -0.211143544415 0)
(63.774107321 -0.216118899583 0)
(64.4269520058 -0.221271024406 0)
(65.0960212065 -0.226605726548 0)
(65.7819469201 -0.232125643548 0)
(66.4853969416 -0.237831114793 0)
(67.2070729413 -0.243722772878 0)
(67.9477072086 -0.249805174416 0)
(68.7080605637 -0.256089796496 0)
(69.4889245342 -0.262595288347 0)
(70.2911297562 -0.269343564134 0)
(71.1155596073 -0.276352253327 0)
(71.9631644665 -0.283626504568 0)
(72.83496985 -0.291154768727 0)
(73.7320730544 -0.298912444409 0)
(74.65562839 -0.306873460409 0)
(75.6068286083 -0.315024036471 0)
(76.5868953953 -0.323368102598 0)
(77.5970900408 -0.331914486868 0)
(78.6387444272 -0.340645119141 0)
(79.7132959392 -0.349479311458 0)
(80.8222983892 -0.358262010783 0)
(81.9673879877 -0.366798828116 0)
(83.1502140847 -0.374928905358 0)
(84.372383342 -0.382581628079 0)
(85.6354768807 -0.389743687552 0)
(86.9411516404 -0.396307443437 0)
(88.2912452116 -0.401871216295 0)
(89.6877443243 -0.40564003265 0)
(91.1325348661 -0.406537108934 0)
(92.6270197564 -0.403471837028 0)
(94.1718349042 -0.395541990992 0)
(95.7668474081 -0.381943884139 0)
(97.4113641364 -0.361570731401 0)
(99.1042095946 -0.332548179248 0)
(100.843326085 -0.29205235766 0)
(102.624920503 -0.236558387865 0)
(104.442738571 -0.162309077874 0)
(106.288378715 -0.0656589002202 0)
(108.153378906 0.0565642320078 0)
(110.033416378 0.205475203196 0)
(111.935371884 0.375102609868 0)
(113.890302697 0.540717050836 0)
(115.978328294 0.633461019673 0)
(118.366933706 0.483334778282 0)
(121.331970512 -0.299160202651 0)
(125.178807007 -2.49461019471 0)
(129.965113393 -7.34995348364 0)
(135.307372624 -15.7768731809 0)
(47.2279546997 7.60714465983 0)
(46.2617174607 3.86620582102 0)
(45.4705969476 1.28096586078 0)
(45.045044856 -0.194048637008 0)
(45.0086298048 -0.907677097384 0)
(45.2677256101 -1.17821944565 0)
(45.7074213666 -1.21738093666 0)
(46.2359891636 -1.14567578043 0)
(46.7939263626 -1.02699320563 0)
(47.3474553686 -0.894343681547 0)
(47.8797642429 -0.764610434724 0)
(48.3842326158 -0.64610879441 0)
(48.8600174584 -0.542424377978 0)
(49.3093444519 -0.454463040421 0)
(49.73588375 -0.381627218179 0)
(50.1437985239 -0.322531065613 0)
(50.5372119519 -0.275445856283 0)
(50.9199307106 -0.23857222624 0)
(51.2953200836 -0.210195783072 0)
(51.6662660766 -0.188765624301 0)
(52.0351878628 -0.172926029361 0)
(52.4040797272 -0.161522846701 0)
(52.7745682841 -0.153596770043 0)
(53.1479735348 -0.148368376044 0)
(53.5253655806 -0.145216797592 0)
(53.9076132627 -0.143654512255 0)
(54.2954248715 -0.143301989317 0)
(54.6893826991 -0.143865569603 0)
(55.0899727666 -0.145119978583 0)
(55.4976099627 -0.146894842873 0)
(55.9126583417 -0.149063744333 0)
(56.33544667 -0.151534729547 0)
(56.7662799507 -0.154241999609 0)
(57.2054480327 -0.157139002255 0)
(57.6532323265 -0.160193138583 0)
(58.1099112924 -0.16338200677 0)
(58.5757649877 -0.166690840376 0)
(59.0510787446 -0.170110714259 0)
(59.5361460118 -0.173637172155 0)
(60.0312704648 -0.177269082046 0)
(60.5367675866 -0.181007659658 0)
(61.0529659542 -0.184855672711 0)
(61.5802084371 -0.188816848707 0)
(62.1188534187 -0.192895484167 0)
(62.6692760588 -0.19709622642 0)
(63.2318695349 -0.201423992483 0)
(63.8070461775 -0.205884004347 0)
(64.3952384225 -0.210481937876 0)
(64.9968995682 -0.21522417631 0)
(65.6125044311 -0.220118111454 0)
(66.2425501435 -0.225172354688 0)
(66.8875574694 -0.230396650096 0)
(67.5480730297 -0.235801293308 0)
(68.2246726007 -0.241396014031 0)
(68.9179651392 -0.247188580447 0)
(69.6285965448 -0.253183727386 0)
(70.3572517559 -0.259383190855 0)
(71.1046540465 -0.265787417243 0)
(71.8715615995 -0.272398802087 0)
(72.6587632859 -0.279225281637 0)
(73.4670771728 -0.286282262415 0)
(74.2973553703 -0.293590900275 0)
(75.1504965744 -0.301172070682 0)
(76.0274634908 -0.309037772985 0)
(76.9292981592 -0.317184076068 0)
(77.8571268962 -0.325590369851 0)
(78.8121502608 -0.334227269599 0)
(79.795621756 -0.343070105284 0)
(80.8088280799 -0.352108866255 0)
(81.85308737 -0.36134315238 0)
(82.9297745607 -0.370756541258 0)
(84.0403646573 -0.380279435903 0)
(85.1864646511 -0.38976567221 0)
(86.3697999061 -0.399010978327 0)
(87.5921452337 -0.407817314713 0)
(88.8552383718 -0.416061116734 0)
(90.1607483457 -0.42368929318 0)
(91.5103463485 -0.43059040253 0)
(92.905832709 -0.436381401341 0)
(94.3491758915 -0.440252067394 0)
(95.8423275253 -0.44101396053 0)
(97.3868353991 -0.437357711283 0)
(98.9834740245 -0.428120154707 0)
(100.632144113 -0.412286317961 0)
(102.332062701 -0.388615359627 0)
(104.081948552 -0.355094198935 0)
(105.879848278 -0.308634761489 0)
(107.722635418 -0.245321664833 0)
(109.60581197 -0.161120740428 0)
(111.524502574 -0.0526657047893 0)
(113.476133351 0.0818901773725 0)
(115.464714871 0.240763715581 0)
(117.507170954 0.412480020685 0)
(119.644642256 0.56176440761 0)
(121.963534573 0.600557253101 0)
(124.622314446 0.332115574781 0)
(127.84585313 -0.646000628778 0)
(131.815989165 -3.06037067241 0)
(136.427069433 -7.98888681366 0)
(141.216061766 -16.1510402748 0)
(49.9986426466 7.94873564339 0)
(49.2985375034 4.21950664146 0)
(48.6615437198 1.54742706 0)
(48.280375889 -0.058290378281 0)
(48.216669493 -0.887373584858 0)
(48.4199371828 -1.23465306385 0)
(48.8021742774 -1.31391617189 0)
(49.283068577 -1.25667358166 0)
(49.8055362733 -1.13728681984 0)
(50.3345654781 -0.996075006919 0)
(50.8511896226 -0.854399858103 0)
(51.3467480461 -0.723145402024 0)
(51.8187436881 -0.607288691758 0)
(52.2681410319 -0.508418908853 0)
(52.6976756292 -0.426201855368 0)
(53.1108258597 -0.359274619137 0)
(53.5112123885 -0.305803563579 0)
(53.9022693991 -0.263824908196 0)
(54.2870823271 -0.231439516323 0)
(54.6683243766 -0.206913225533 0)
(55.0482518494 -0.188721022567 0)
(55.4287346208 -0.175560407356 0)
(55.8113051158 -0.166347298217 0)
(56.1972126553 -0.160200119779 0)
(56.5874743956 -0.156415426694 0)
(56.982919367 -0.154439278829 0)
(57.3842260246 -0.153839169419 0)
(57.7919548759 -0.154279942576 0)
(58.2065769142 -0.155504624236 0)
(58.628497551 -0.157319166584 0)
(59.0580756149 -0.159579657047 0)
(59.4956376527 -0.162181169089 0)
(59.941488492 -0.16504820024 0)
(60.3959192803 -0.168126949774 0)
(60.8592139572 -0.171379520948 0)
(61.331654654 -0.17477980304 0)
(61.8135261488 -0.178310577731 0)
(62.3051193671 -0.181961391691 0)
(62.8067339822 -0.185726876265 0)
(63.3186802946 -0.189605363047 0)
(63.8412806639 -0.193597760212 0)
(64.3748707621 -0.197706694997 0)
(64.9198008318 -0.201935912735 0)
(65.4764370109 -0.20628989044 0)
(66.0451626963 -0.210773605155 0)
(66.6263798651 -0.215392407164 0)
(67.2205102712 -0.220151978164 0)
(67.8279964532 -0.225058383834 0)
(68.4493025272 -0.230118236055 0)
(69.0849148101 -0.235338947316 0)
(69.7353424459 -0.24072899068 0)
(70.4011183741 -0.246297998801 0)
(71.0828011014 -0.252056495184 0)
(71.7809776716 -0.258015112601 0)
(72.4962678406 -0.264183357972 0)
(73.2293287724 -0.270568301657 0)
(73.9808588495 -0.277173868619 0)
(74.7515989276 -0.284001468859 0)
(75.5423300745 -0.29105231812 0)
(76.3538686113 -0.298330940292 0)
(77.1870615305 -0.305848306633 0)
(78.0427867763 -0.313622463298 0)
(78.9219620241 -0.321674992161 0)