/*--------------------------------*- C++ -*----------------------------------*\
| =========                 |                                                 |
| \\      /  F ield         | OpenFOAM: The Open Source CFD Toolbox           |
|  \\    /   O peration     | Version:  2.4.0                                 |
|   \\  /    A nd           | Web:      www.OpenFOAM.org                      |
|    \\/     M anipulation  |                                                 |
\*---------------------------------------------------------------------------*/
FoamFile
{
    version     2.0;
    format      ascii;
    class       volVectorField;
    location    "24.4480664";
    object      q;
}
// * * * * * * * * * * * * * * * * * * * * * * * * * * * * * * * * * * * * * //

dimensions      [1 0 -3 0 0 0 0];

internalField   nonuniform List<vector> 
3840
(
(7.6866827994 2.19033580816 0)
(10.1012441177 2.57671891215 0)
(12.495387032 2.92101082737 0)
(14.9013557581 3.19344923074 0)
(17.3414954715 3.34649673286 0)
(19.6647179863 3.38775205261 0)
(21.8387480036 3.33537663319 0)
(23.8619412075 3.20195444729 0)
(25.7900349268 2.94627339347 0)
(27.5360210952 2.58852976354 0)
(28.9999612634 2.21953992366 0)
(30.1983021743 1.83353932527 0)
(31.1535979591 1.40352663466 0)
(31.8434343914 0.965627812168 0)
(32.2694760256 0.539169363232 0)
(32.4767925851 0.158238164804 0)
(32.4767942105 -0.158238207406 0)
(32.2694748707 -0.539169243009 0)
(31.8434348757 -0.965627920373 0)
(31.1535975954 -1.40352661005 0)
(30.198302387 -1.83353939448 0)
(28.999961068 -2.21953992753 0)
(27.5360212207 -2.58852983921 0)
(25.7900346802 -2.94627349682 0)
(23.8619414079 -3.20195444575 0)
(21.8387480676 -3.33537667329 0)
(19.6647179888 -3.38775208348 0)
(17.3414955088 -3.34649677885 0)
(14.9013558068 -3.19344927969 0)
(12.4953870772 -2.92101087118 0)
(10.1012441635 -2.57671895199 0)
(7.68668284843 -2.1903358478 0)
(5.54127590192 -1.80134353257 0)
(3.69256029671 -1.43292699027 0)
(2.26603748687 -1.08681641811 0)
(1.30799407852 -0.7741312762 0)
(0.734060919093 -0.523804955434 0)
(0.408965402891 -0.339187031491 0)
(0.222823080885 -0.20964183452 0)
(0.116495502831 -0.122559090103 0)
(0.0615006957313 -0.0741044912568 0)
(0.0312257621741 -0.0450238529796 0)
(0.0148633315289 -0.02789413207 0)
(0.00641669213055 -0.019155611105 0)
(0.00196950916285 -0.0142701252889 0)
(-0.000589526307464 -0.0106476147162 0)
(-0.00224108588879 -0.00647857881734 0)
(-0.00301111585429 -0.00234067222439 0)
(-0.00301111585721 0.00234067229369 0)
(-0.00224108591353 0.00647857883212 0)
(-0.000589526358093 0.0106476146866 0)
(0.0019695090998 0.0142701252649 0)
(0.00641669204563 0.0191556110645 0)
(0.0148633313161 0.0278941318483 0)
(0.0312257616173 0.0450238523106 0)
(0.0615006940227 0.0741044889574 0)
(0.116495499186 0.12255908575 0)
(0.222823077853 0.209641831511 0)
(0.408965399577 0.339187028279 0)
(0.734060911759 0.523804948897 0)
(1.30799406263 0.774131262425 0)
(2.26603746021 1.08681639614 0)
(3.69256025595 1.43292695993 0)
(5.54127585388 1.80134349823 0)
(7.4738649352 1.92570379451 0)
(9.67064877228 2.32121546595 0)
(11.9702146011 2.68975438333 0)
(14.2783137239 2.98754704395 0)
(16.6468937937 3.18087845455 0)
(19.0023229671 3.25937545709 0)
(21.232221671 3.23652702323 0)
(23.3503189218 3.12134689142 0)
(25.2905617212 2.93854449767 0)
(27.0915563003 2.65119106326 0)
(28.685002926 2.29890165206 0)
(30.0255336477 1.8971395665 0)
(31.1098943151 1.4845717026 0)
(31.9151401399 1.09486527831 0)
(32.4570932535 0.673168562344 0)
(32.7451362395 0.214998141183 0)
(32.7451360029 -0.214998153195 0)
(32.4570935227 -0.673168604518 0)
(31.9151400725 -1.09486528725 0)
(31.1098943758 -1.48457174052 0)
(30.0255336021 -1.89713959754 0)
(28.6850029595 -2.29890170828 0)
(27.0915563205 -2.65119112094 0)
(25.2905616118 -2.93854460992 0)
(23.3503190704 -3.12134690208 0)
(21.2322217125 -3.23652706355 0)
(19.0023229655 -3.25937548618 0)
(16.6468938149 -3.18087849216 0)
(14.2783137714 -2.98754708979 0)
(11.9702146529 -2.68975442726 0)
(9.67064882037 -2.32121550388 0)
(7.47386498425 -1.92570383644 0)
(5.4807186852 -1.54135868294 0)
(3.75814773359 -1.19748363339 0)
(2.41115451973 -0.921852622228 0)
(1.44424210542 -0.678734232627 0)
(0.815845483338 -0.465921623498 0)
(0.448030226181 -0.301097646847 0)
(0.241279661405 -0.182434741468 0)
(0.130642464418 -0.109167071151 0)
(0.0714236919267 -0.0669758280285 0)
(0.0379202958977 -0.0418576187878 0)
(0.0181679982129 -0.0247525709368 0)
(0.00827303861037 -0.0161127731849 0)
(0.00326873063268 -0.0120533357915 0)
(0.000614906191715 -0.0093996067428 0)
(-0.00102208348168 -0.00622022328979 0)
(-0.0019026378548 -0.00200201863104 0)
(-0.00190263786354 0.00200201873813 0)
(-0.00102208351355 0.00622022334937 0)
(0.000614906148252 0.00939960677535 0)
(0.00326873058108 0.0120533358147 0)
(0.00827303849937 0.0161127731416 0)
(0.0181679978935 0.0247525706566 0)
(0.0379202950535 0.0418576179728 0)
(0.0714236896463 0.0669758256059 0)
(0.130642460896 0.109167067435 0)
(0.241279660345 0.182434740458 0)
(0.448030223844 0.301097644756 0)
(0.815845476209 0.465921617207 0)
(1.44424208954 0.678734219671 0)
(2.41115449074 0.921852602095 0)
(3.75814768741 1.19748360661 0)
(5.48071863334 1.54135865326 0)
(7.21366903668 1.74115876144 0)
(9.23652874918 2.14394105194 0)
(11.4484002937 2.5270460302 0)
(13.7064802681 2.84024388281 0)
(15.9955056319 3.0672775282 0)
(18.3361936973 3.18414873645 0)
(20.6160128351 3.19051940836 0)
(22.7853009174 3.10644609143 0)
(24.7943576835 2.94516365025 0)
(26.6266714372 2.71064418965 0)
(28.2895991194 2.37996619421 0)
(29.7196791802 1.98224795991 0)
(30.881288736 1.57860780467 0)
(31.7574543564 1.17726333499 0)
(32.3444191715 0.751394251682 0)
(32.6571815737 0.269413746622 0)
(32.6571816678 -0.269413764914 0)
(32.3444192026 -0.751394262864 0)
(31.7574543876 -1.17726336125 0)
(30.8812887278 -1.57860782983 0)
(29.7196791788 -1.98224799679 0)
(28.289599117 -2.37996623977 0)
(26.6266714685 -2.71064424852 0)
(24.7943576024 -2.9451637492 0)
(22.7853010457 -3.10644611284 0)
(20.6160128667 -3.19051944668 0)
(18.3361937428 -3.18414878302 0)
(15.9955056618 -3.06727756758 0)
(13.7064803121 -2.8402439253 0)
(11.448400347 -2.52704607267 0)
(9.23652879962 -2.14394108891 0)
(7.21366910364 -1.74115879621 0)
(5.32040039671 -1.35635494397 0)
(3.71294228038 -1.02544689244 0)
(2.46719087379 -0.784629766987 0)
(1.53411970032 -0.593364525328 0)
(0.883656799357 -0.417098184367 0)
(0.481834694001 -0.270788617268 0)
(0.260534885445 -0.166299226248 0)
(0.144634543994 -0.103034864691 0)
(0.0794888754908 -0.0630482924712 0)
(0.043350314562 -0.0399381258702 0)
(0.0213812675046 -0.0237519102901 0)
(0.00953229638408 -0.0136277606874 0)
(0.00392264173189 -0.0090116556311 0)
(0.00147456744044 -0.00693057326137 0)
(0.000257953584719 -0.00470729608844 0)
(-0.000425483133283 -0.00158885047503 0)
(-0.000425483145676 0.00158885062155 0)
(0.000257953556803 0.00470729622181 0)
(0.0014745674159 0.00693057336732 0)
(0.00392264168513 0.00901165566912 0)
(0.00953229622374 0.0136277605829 0)
(0.0213812670541 0.0237519098934 0)
(0.0433503133794 0.0399381248488 0)
(0.0794888730135 0.0630482901521 0)
(0.144634541402 0.103034861977 0)
(0.260534885702 0.166299226422 0)
(0.481834691949 0.270788615445 0)
(0.88365679211 0.417098178221 0)
(1.5341196839 0.593364513087 0)
(2.46719084427 0.784629747864 0)
(3.71294223673 1.02544686671 0)
(5.32040035424 1.35635491507 0)
(6.91716560372 1.60536366635 0)
(8.85190594287 2.01579961363 0)
(10.9679375298 2.40730351524 0)
(13.1844892458 2.73323516746 0)
(15.4149443179 2.98573945977 0)
(17.724589476 3.13642965637 0)
(20.0360823497 3.17433477808 0)
(22.2403352995 3.12274693616 0)
(24.3083143633 2.98276920099 0)
(26.1919581013 2.77225012253 0)
(27.9071336047 2.46398706237 0)
(29.4033977763 2.08177094362 0)
(30.6341683276 1.67570990898 0)
(31.5743247448 1.24326114165 0)
(32.2015945542 0.792810529092 0)
(32.5240024578 0.289162935805 0)
(32.5240025023 -0.289162951873 0)
(32.2015946349 -0.792810545996 0)
(31.5743247659 -1.24326116351 0)
(30.6341683344 -1.67570993571 0)
(29.4033977698 -2.08177097795 0)
(27.9071336093 -2.46398710823 0)
(26.1919581286 -2.77225017953 0)
(24.3083143149 -2.98276929027 0)
(22.2403354121 -3.12274696702 0)
(20.0360823742 -3.17433481488 0)
(17.7245895868 -3.13642972877 0)
(15.4149443645 -2.98573950491 0)
(13.1844892886 -2.73323520809 0)
(10.9679375782 -2.40730355411 0)
(8.85190599315 -2.01579964884 0)
(6.91716565027 -1.60536370289 0)
(5.14243097978 -1.22465815282 0)
(3.63141230199 -0.905288370049 0)
(2.46481893627 -0.675779768176 0)
(1.58371739954 -0.517650101348 0)
(0.939534594497 -0.374788106405 0)
(0.51699503996 -0.247906370561 0)
(0.284076808011 -0.158587078307 0)
(0.158966919772 -0.100297077114 0)
(0.087841800548 -0.0618487356554 0)
(0.0478780220723 -0.0384433397644 0)
(0.0246782397259 -0.0235888766405 0)
(0.0107706529942 -0.011775823401 0)
(0.00430794944122 -0.00562353247672 0)
(0.00211775016309 -0.0036205890322 0)
(0.00159438255385 -0.00214501946122 0)
(0.00140079848587 -0.00101174937104 0)
(0.00140079847617 0.00101174957919 0)
(0.00159438254114 0.00214501968385 0)
(0.00211775015924 0.00362058920184 0)
(0.00430794938751 0.00562353250631 0)
(0.0107706527717 0.0117758232153 0)
(0.0246782391135 0.023588876092 0)
(0.0478780205704 0.0384433385505 0)
(0.0878417983391 0.0618487336991 0)
(0.158966918283 0.100297075361 0)
(0.28407680877 0.158587078893 0)
(0.516995037889 0.247906368679 0)
(0.939534587086 0.374788100349 0)
(1.58371738239 0.517650089731 0)
(2.46481890459 0.67577975089 0)
(3.63141225475 0.905288347749 0)
(5.1424309277 1.2246581258 0)
(6.61866024144 1.50175695771 0)
(8.49335846545 1.91560865403 0)
(10.5332600206 2.31223160572 0)
(12.6983159434 2.65135638079 0)
(14.8913878822 2.92222834382 0)
(17.1667871557 3.10420035262 0)
(19.48354688 3.17573150913 0)
(21.7191802918 3.15115829997 0)
(23.8250545289 3.03720510281 0)
(25.7653675006 2.83756205853 0)
(27.526959155 2.54926645733 0)
(29.0769790279 2.18108818591 0)
(30.3663699081 1.76926028572 0)
(31.3594069091 1.31187705855 0)
(32.0198795306 0.824976940165 0)
(32.3524689674 0.287585844956 0)
(32.3524690295 -0.287585860602 0)
(32.0198796115 -0.824976955186 0)
(31.359406939 -1.31187708006 0)
(30.3663699152 -1.76926031109 0)
(29.0769790243 -2.18108821952 0)
(27.5269591587 -2.54926650135 0)
(25.7653675276 -2.83756211391 0)
(23.8250545041 -3.03720518254 0)
(21.7191803916 -3.15115833963 0)
(19.4835469026 -3.17573154659 0)
(17.1667872283 -3.10420041046 0)
(14.8913879395 -2.92222839285 0)
(12.6983159894 -2.65135642164 0)
(10.5332600682 -2.3122316428 0)
(8.49335851469 -1.91560868809 0)
(6.6186603086 -1.50175698433 0)
(4.95742928 -1.12427033683 0)
(3.54807620483 -0.817628450618 0)
(2.43961118057 -0.591298739756 0)
(1.60504351155 -0.448029888078 0)
(0.983074318993 -0.335047001145 0)
(0.553654008048 -0.229293127457 0)
(0.309146222652 -0.153791605021 0)
(0.173255818353 -0.0991960420898 0)
(0.0963374982834 -0.0620479131647 0)
(0.0523503782313 -0.0380071862172 0)
(0.0276932217331 -0.0232959818475 0)
(0.0123007324632 -0.0106749166314 0)
(0.00469278478104 -0.00248122135262 0)
(0.00260859485275 0.000449792436342 0)
(0.0029658423372 0.00118296075799 0)
(0.00352694877823 0.000113140496024 0)
(0.00352694877894 -0.000113140201207 0)
(0.00296584234979 -0.00118296044002 0)
(0.00260859486709 -0.000449792216806 0)
(0.00469278470818 0.0024812213558 0)
(0.0123007321652 0.0106749163517 0)
(0.0276932209178 0.0232959811244 0)
(0.0523503765309 0.0380071848986 0)
(0.0963374967253 0.0620479117701 0)
(0.173255817709 0.0991960410264 0)
(0.309146223535 0.153791605669 0)
(0.553654005736 0.229293125442 0)
(0.983074310991 0.335046995343 0)
(1.60504349304 0.448029877168 0)
(2.43961114785 0.591298723006 0)
(3.54807616024 0.817628427676 0)
(4.95742924091 1.12427030901 0)
(6.3316394662 1.42082075793 0)
(8.14731808222 1.83367792166 0)
(10.1311816052 2.23468572922 0)
(12.2362251397 2.58667778104 0)
(14.4053059053 2.87238031276 0)
(16.6521785324 3.07977283431 0)
(18.9575094305 3.18341329761 0)
(21.2118569325 3.18824334225 0)
(23.3481716457 3.09892154488 0)
(25.336253571 2.91192565335 0)
(27.1456721617 2.63621992764 0)
(28.7421174416 2.27922854321 0)
(30.0826702018 1.85950402059 0)
(31.1194669745 1.3778769432 0)
(31.8100987417 0.850676587266 0)
(32.1538892945 0.284355889771 0)
(32.1538893631 -0.284355904619 0)
(31.8100988318 -0.850676602036 0)
(31.11946701 -1.37787696361 0)
(30.082670212 -1.85950404488 0)
(28.7421174392 -2.27922857582 0)
(27.1456721656 -2.63621997045 0)
(25.336253598 -2.9119257066 0)
(23.3481716382 -3.09892161704 0)
(21.2118570224 -3.18824338939 0)
(18.9575094533 -3.18341333641 0)
(16.652178563 -3.07977287501 0)
(14.4053059581 -2.87238035953 0)
(12.2362251886 -2.58667782243 0)
(10.1311816531 -2.23468576587 0)
(8.14731813134 -1.83367795371 0)
(6.33163950241 -1.42082079107 0)
(4.77129875946 -1.04793863513 0)
(3.45721075307 -0.750976613181 0)
(2.39825053994 -0.528578465314 0)
(1.60422951191 -0.389154733985 0)
(1.01331194722 -0.298681089974 0)
(0.592046025201 -0.214805978406 0)
(0.334814296879 -0.149606161709 0)
(0.188152871679 -0.0990448159718 0)
(0.105255224814 -0.0631318158542 0)
(0.057267839196 -0.0384978444374 0)
(0.0301975448877 -0.0224588618557 0)
(0.0138814087075 -0.00965450282988 0)
(0.00508358926495 0.000709350786674 0)
(0.00301255665049 0.00536289443107 0)
(0.00446213515951 0.00505100575698 0)
(0.00597180824279 0.00170920442352 0)
(0.00597180826095 -0.00170920400756 0)
(0.00446213520563 -0.00505100534392 0)
(0.00301255668029 -0.00536289417456 0)
(0.00508358916333 -0.000709350822716 0)
(0.0138814083177 0.00965450244238 0)
(0.0301975438514 0.0224588609541 0)
(0.0572678375108 0.0384978431476 0)
(0.105255224108 0.0631318150964 0)
(0.188152871574 0.0990448153129 0)
(0.334814297693 0.149606162233 0)
(0.59204602268 0.214805976235 0)
(1.0133119381 0.29868108393 0)
(1.60422949224 0.389154723638 0)
(2.39825050611 0.528578450185 0)
(3.45721070731 0.750976594196 0)
(4.77129870391 1.04793861011 0)
(6.06267752584 1.35671310179 0)
(7.81540149883 1.76628000633 0)
(9.75099946304 2.17012534955 0)
(11.7997312567 2.5331277751 0)
(13.9445656778 2.83300594031 0)
(16.1668972678 3.06242079031 0)
(18.4489997067 3.19814762928 0)
(20.7146007796 3.2296734692 0)
(22.8764347657 3.16187563802 0)
(24.9021056852 2.99002476506 0)
(26.7559872093 2.72358254497 0)
(28.3939315926 2.37412725604 0)
(29.77853907 1.94512180923 0)
(30.8521438396 1.44222505725 0)
(31.5683579146 0.878098253938 0)
(31.9267285047 0.287178830145 0)
(31.9267285825 -0.287178844499 0)
(31.5683580127 -0.87809826813 0)
(30.8521438814 -1.44222507672 0)
(29.7785390828 -1.94512183241 0)
(28.3939315917 -2.3741272876 0)
(26.7559872132 -2.72358258639 0)
(24.9021057124 -2.99002481676 0)
(22.876434772 -3.16187570272 0)
(20.7146008619 -3.22967352254 0)
(18.4489997295 -3.19814766887 0)
(16.1668972877 -3.06242082644 0)
(13.9445657221 -2.83300598312 0)
(11.7997313057 -2.53312781585 0)
(9.75099951074 -2.17012538502 0)
(7.81540154714 -1.7662800373 0)
(6.06267757868 -1.35671313989 0)
(4.58781936048 -0.988702894502 0)
(3.36360216631 -0.698196304066 0)
(2.35182486299 -0.480555750132 0)
(1.58924811576 -0.339853344229 0)
(1.03340557191 -0.264405682429 0)
(0.62940013796 -0.20158135263 0)
(0.361027916067 -0.145465391816 0)
(0.204364852042 -0.0997327355467 0)
(0.114684731111 -0.0646982184956 0)
(0.0626031721427 -0.0393573268882 0)
(0.0326820928701 -0.0215991331502 0)
(0.0154675731203 -0.00838838613066 0)
(0.00556801630926 0.0039567501121 0)
(0.00341403518964 0.0108873855491 0)
(0.00602939459743 0.00973234666579 0)
(0.00877728368983 0.0036938043132 0)
(0.00877728373289 -0.00369380373853 0)
(0.00602939468529 -0.00973234616013 0)
(0.00341403523075 -0.0108873852744 0)
(0.00556801617066 -0.00395675019833 0)
(0.0154675726153 0.00838838562136 0)
(0.0326820916312 0.0215991320931 0)
(0.0626031706925 0.0393573257649 0)
(0.114684731261 0.0646982183315 0)
(0.204364852193 0.0997327350536 0)
(0.361027916757 0.145465392225 0)
(0.629400134806 0.201581350238 0)
(1.03340556233 0.264405676785 0)
(1.58924809442 0.339853334224 0)
(2.35182482786 0.480555736625 0)
(3.36360212041 0.698196289066 0)
(4.58781931551 0.988702877224 0)
(5.81291190389 1.30563767285 0)
(7.49887855432 1.71028093525 0)
(9.38375661325 2.11579743274 0)
(11.3861473944 2.48778659879 0)
(13.502963202 2.80203039695 0)
(15.6988665166 3.05163715385 0)
(17.9571865815 3.21391958601 0)
(20.222507049 3.2726996371 0)
(22.4053642699 3.224200807 0)
(24.4608928398 3.06865776386 0)
(26.3530564188 2.81257052754 0)
(28.0286014811 2.46713970605 0)
(29.4502427464 2.02818357217 0)
(30.5546129967 1.50416298227 0)
(31.2933056914 0.908226490388 0)
(31.6696409456 0.297942572902 0)
(31.6696410321 -0.297942586722 0)
(31.2933057983 -0.908226504006 0)
(30.5546130448 -1.50416300073 0)
(29.450242762 -2.0281835942 0)
(28.0286014815 -2.46713973651 0)
(26.3530564228 -2.81257056776 0)
(24.4608928674 -3.0686578142 0)
(22.4053642857 -3.22420086597 0)
(20.2225071259 -3.27269969522 0)
(17.9571866034 -3.2139196261 0)
(15.6988665386 -3.05163719099 0)
(13.5029632414 -2.80203043725 0)
(11.3861474413 -2.48778663828 0)
(9.38375666014 -2.11579746712 0)
(7.49887860236 -1.71028096656 0)
(5.81291195133 -1.30563769326 0)
(4.41068789625 -0.942993007979 0)
(3.26161525653 -0.655611953331 0)
(2.30416663863 -0.444033266495 0)
(1.56754418421 -0.301432817564 0)
(1.04347622704 -0.232746752647 0)
(0.661824164337 -0.18807535759 0)
(0.387387286727 -0.140667024615 0)
(0.22173295724 -0.10075992986 0)
(0.12480184032 -0.0666363249557 0)
(0.0682327574662 -0.0405225198553 0)
(0.0352361817492 -0.02098915996 0)
(0.0169514179975 -0.00674717977877 0)
(0.0062811303496 0.00722000571031 0)
(0.00389873324158 0.0167855757838 0)
(0.00769702711971 0.0153185983021 0)
(0.0118925818365 0.00598889895265 0)
(0.0118925819096 -0.00598889818343 0)
(0.007697027255 -0.0153185977095 0)
(0.00389873328948 -0.0167855755094 0)
(0.00628113016396 -0.0072200058584 0)
(0.0169514173465 0.00674717913415 0)
(0.0352361803874 0.0209891588089 0)
(0.0682327564689 0.0405225190215 0)
(0.124801841236 0.0666363252973 0)
(0.221732957386 0.100759929353 0)
(0.387387287087 0.140667024803 0)
(0.66182416065 0.188075355217 0)
(1.04347621651 0.232746747352 0)
(1.56754416162 0.301432808367 0)
(2.30416660353 0.444033253816 0)
(3.26161521278 0.655611936444 0)
(4.41068786196 0.942992988409 0)
(5.57934968108 1.26429617978 0)
(7.19785544345 1.66399416652 0)
(9.02499341695 2.06986339789 0)
(10.9898444655 2.44944154878 0)
(13.0750744126 2.77694613452 0)
(15.244133767 3.04409126088 0)
(17.4759692482 3.23114676181 0)
(19.7346472931 3.31448638774 0)
(21.9313656637 3.28571034916 0)
(24.0103180559 3.1448530453 0)
(25.9333859402 2.8981282114 0)
(27.6411433529 2.55335207522 0)
(29.093041533 2.10521302027 0)
(30.2222356046 1.56051939651 0)
(30.9829558974 0.943727819731 0)
(31.3751187854 0.31217440288 0)
(31.3751188811 -0.312174416251 0)
(30.9829560132 -0.943727832614 0)
(30.2222356594 -1.56051941389 0)
(29.0930415516 -2.1052130412 0)
(27.6411433547 -2.5533521046 0)
(25.9333859444 -2.89812825025 0)
(24.0103180839 -3.14485309437 0)
(21.9313656857 -3.28571040321 0)
(19.7346473661 -3.31448644983 0)
(17.4759692695 -3.23114680195 0)
(15.2441338232 -3.04409131324 0)
(13.0750744522 -2.77694617442 0)
(10.9898445095 -2.44944158664 0)
(9.02499346247 -2.06986343134 0)
(7.19785548851 -1.66399419653 0)
(5.57934973124 -1.26429619988 0)
(4.23939112383 -0.907626700178 0)
(3.15157427483 -0.622223131346 0)
(2.25375660526 -0.416585839718 0)
(1.54328584346 -0.273736297444 0)
(1.04744960391 -0.20595009361 0)
(0.687849183136 -0.174164436663 0)
(0.41432403433 -0.136176523752 0)
(0.239415621674 -0.10110446293 0)
(0.135459512455 -0.0686334775308 0)
(0.0743282502714 -0.0419081856644 0)
(0.0381422717548 -0.0206140799634 0)
(0.0181048278185 -0.00439616476014 0)
(0.00706670943245 0.0109024634881 0)
(0.00444897195029 0.0231231283409 0)
(0.00951398353957 0.0218159082264 0)
(0.0153721172737 0.00864078105204 0)
(0.0153721173809 -0.00864078005414 0)
(0.00951398372805 -0.0218159075422 0)
(0.00444897200215 -0.0231231280895 0)
(0.00706670918345 -0.0109024637169 0)
(0.0181048270004 0.0043961639739 0)
(0.0381422703823 0.0206140787891 0)
(0.0743282498932 0.0419081852224 0)
(0.135459514013 0.0686334782848 0)
(0.239415621747 0.101104462326 0)
(0.41432403457 0.136176523916 0)
(0.68784917873 0.174164434307 0)
(1.04744959214 0.205950088681 0)
(1.54328582028 0.273736289308 0)
(2.25375657204 0.416585827117 0)
(3.15157423583 0.622223113948 0)
(4.23939108637 0.907626679976 0)
(5.36005758504 1.23158619076 0)
(6.91007076604 1.62602155572 0)
(8.67977954666 2.03165532183 0)
(10.6063430352 2.41652553409 0)
(12.6564634767 2.75690568041 0)
(14.7959333838 3.04057091658 0)
(17.0015933179 3.24878613411 0)
(19.2465463588 3.35461698991 0)
(21.4506679683 3.34381997517 0)
(23.546971964 3.21674188723 0)
(25.4930942562 2.97959933363 0)
(27.2275076162 2.63435412713 0)
(28.7020585544 2.17622812957 0)
(29.8518748117 1.61432841116 0)
(30.6315358833 0.980326661727 0)
(31.0380907799 0.328055814116 0)
(31.0380908852 -0.328055826853 0)
(30.6315360089 -0.980326673915 0)
(29.8518748734 -1.61432842745 0)
(28.7020585762 -2.17622814937 0)
(27.2275076195 -2.63435415538 0)
(25.4930942607 -2.9795993712 0)
(23.5469719925 -3.21674193521 0)
(21.4506679943 -3.34382002593 0)
(19.246546429 -3.35461705502 0)
(17.0015933401 -3.2487861747 0)
(14.7959334375 -3.04057096819 0)
(12.65646352 -2.75690572166 0)
(10.6063430782 -2.41652557109 0)
(8.6797795906 -2.03165535406 0)
(6.91007080952 -1.62602158465 0)
(5.36005762922 -1.23158621081 0)
(4.07459268825 -0.880334005754 0)
(3.0399810294 -0.597297975348 0)
(2.19909818218 -0.395439019514 0)
(1.5181616549 -0.25439173233 0)
(1.04453168007 -0.18376906872 0)
(0.707343749516 -0.160036794151 0)
(0.440903887067 -0.131985084637 0)
(0.257786481007 -0.10096599364 0)
(0.146854296056 -0.0704991697498 0)
(0.080863220044 -0.0432488504232 0)
(0.0413936069388 -0.0202632625175 0)
(0.0191512941628 -0.00156003811723 0)
(0.00783891416371 0.0153288489026 0)
(0.00517286166029 0.0298394765841 0)
(0.0115628121862 0.0292868333081 0)
(0.019231176409 0.0118547247143 0)
(0.019231176554 -0.0118547234477 0)
(0.0115628124328 -0.0292868325264 0)
(0.00517286171287 -0.0298394763774 0)
(0.00783891383546 -0.0153288492335 0)
(0.0191512931851 0.00156003719845 0)
(0.0413936057183 0.0202632614206 0)
(0.0808632203616 0.0432488504124 0)
(0.146854297989 0.0704991706916 0)
(0.257786480811 0.100965992815 0)
(0.440903886939 0.131985084726 0)
(0.707343744328 0.160036791926 0)
(1.04453166707 0.183769064349 0)
(1.51816163143 0.254391724537 0)
(2.19909814918 0.395439006915 0)
(3.03998099025 0.597297959609 0)
(4.07459264831 0.88033398862 0)
(5.1531133498 1.20601222175 0)
(6.63620118117 1.5941861341 0)
(8.34675637038 1.99848781114 0)
(10.2318175144 2.38858184702 0)
(12.2451056761 2.74086543164 0)
(14.3534312951 3.03883427172 0)
(16.530626943 3.26465907993 0)
(18.7567072617 3.3904082408 0)
(20.9606729953 3.39654362 0)
(23.0672918096 3.28398335175 0)
(25.028798563 3.05444795543 0)
(26.7824548768 2.70855408347 0)
(28.2732952105 2.24199652608 0)
(29.4387578866 1.66420764834 0)
(30.2369251448 1.01854541615 0)
(30.6523725575 0.344037934654 0)
(30.6523726731 -0.344037946776 0)
(30.236925281 -1.01854542759 0)
(29.4387579558 -1.66420766354 0)
(28.2732952358 -2.24199654479 0)
(26.7824548817 -2.70855411058 0)
(25.0287985678 -3.05444799174 0)
(23.0672918382 -3.28398339865 0)
(20.9606730239 -3.39654366796 0)
(18.7567073299 -3.39040830811 0)
(16.5306269669 -3.26465912097 0)
(14.3534313273 -3.03883431405 0)
(12.2451057194 -2.74086547268 0)
(10.2318175573 -2.38858188371 0)
(8.34675641255 -1.99848784241 0)
(6.63620122288 -1.59418616219 0)
(5.15311339187 -1.20601224279 0)
(3.91608402107 -0.860007030523 0)
(2.92723710448 -0.579436418112 0)
(2.14022728625 -0.379458912486 0)
(1.49411406404 -0.241739793424 0)
(1.03635925334 -0.166478948541 0)
(0.719319618298 -0.144609774811 0)
(0.465492961846 -0.126342909942 0)
(0.276605184888 -0.0999624002437 0)
(0.159475488309 -0.0724528052942 0)
(0.0878608954404 -0.0445617071185 0)
(0.0448159744922 -0.019806815304 0)
(0.02033205618 0.00140192115607 0)
(0.00854381662682 0.0205363716125 0)
(0.00612502252172 0.0370276179677 0)
(0.0139688882094 0.0373449572277 0)
(0.0234742833256 0.0156773766918 0)
(0.0234742835105 -0.0156773751237 0)
(0.0139688885147 -0.0373449563431 0)
(0.00612502257029 -0.0370276178254 0)
(0.00854381619665 -0.0205363720688 0)
(0.0203320550747 -0.00140192218156 0)
(0.0448159735828 0.0198068144011 0)
(0.0878608963853 0.0445617074979 0)
(0.159475490466 0.0724528063077 0)
(0.276605184449 0.09996239926 0)
(0.465492961289 0.126342909946 0)
(0.719319612296 0.144609772745 0)
(1.0363592394 0.166478944578 0)
(1.4941140404 0.24173978575 0)
(2.14022725432 0.37945890077 0)
(2.92723706695 0.579436404296 0)
(3.91608398188 0.860007017037 0)
(4.95501834233 1.18543798714 0)
(6.37539339951 1.56806459469 0)
(8.02524661567 1.97041094091 0)
(9.8645879605 2.36435831634 0)
(11.8390824337 2.7263949458 0)
(13.9128685332 3.03643378361 0)
(16.0596956727 3.27861685223 0)
(18.261899612 3.42193324377 0)
(20.4573300859 3.44328661249 0)
(22.566864862 3.34327152218 0)
(24.5358736243 3.12071461401 0)
(26.3010919228 2.77385186453 0)
(27.8011805464 2.29894051359 0)
(28.9779124459 1.70973613743 0)
(29.7905907311 1.05394479355 0)
(30.2124382148 0.358180105734 0)
(30.2124383415 -0.358180117276 0)
(29.7905908787 -1.05394480429 0)
(28.9779125231 -1.70973615157 0)
(27.8011805756 -2.29894053122 0)
(26.3010919294 -2.77385189048 0)
(24.5358736296 -3.12071464909 0)
(22.5668648906 -3.34327156796 0)
(20.4573301158 -3.44328665887 0)
(18.2618996787 -3.42193331297 0)
(16.0596956978 -3.27861689337 0)
(13.9128685704 -3.03643382851 0)
(11.8390824737 -2.72639498511 0)
(9.86458800188 -2.36435835207 0)
(8.02524665642 -1.97041097114 0)
(6.37539344023 -1.56806462302 0)
(4.95501838521 -1.18543799265 0)
(3.76433634705 -0.845206430838 0)
(2.81706286003 -0.568148026084 0)
(2.07380249389 -0.367760868978 0)
(1.47156806398 -0.234564168985 0)
(1.02673907388 -0.155367657435 0)
(0.724166749724 -0.130710824925 0)
(0.485990225027 -0.119704602535 0)
(0.295940883454 -0.0982139869091 0)
(0.172679057842 -0.073786972425 0)
(0.0955547436788 -0.0458450579191 0)
(0.0486167142219 -0.0193893578861 0)
(0.0215450840381 0.00472452895763 0)
(0.00903357895928 0.026767275395 0)
(0.00732600092701 0.0448294374982 0)
(0.0166672342483 0.0461869068762 0)
(0.0281206611209 0.0200440305988 0)
(0.0281206613469 -0.0200440286954 0)
(0.0166672346133 -0.046186905885 0)
(0.00732600096446 -0.0448294374454 0)
(0.00903357840529 -0.0267672759982 0)
(0.0215450828795 -0.0047245300373 0)
(0.0486167137722 0.0193893572573 0)
(0.0955547451698 0.0458450585953 0)
(0.172679060183 0.0737869734769 0)
(0.29594088269 0.0982139857897 0)
(0.485990223722 0.119704602182 0)
(0.724166742852 0.130710823137 0)
(1.02673905907 0.15536765382 0)
(1.47156804019 0.23456416175 0)
(2.07380246268 0.367760857571 0)
(2.81706282232 0.568148009658 0)
(3.76433631093 0.845206412583 0)
(4.76366803525 1.16931924015 0)
(6.1246791508 1.54667128731 0)
(7.71550451249 1.94636982264 0)
(9.50358851807 2.34226623027 0)
(11.4355997424 2.71237539451 0)
(13.4724001178 3.03429195742 0)
(15.5861075118 3.28828277275 0)
(17.7592660227 3.44604208687 0)
(19.9379359094 3.48241051972 0)
(22.0422923608 3.39376502644 0)
(24.0105662008 3.17751219854 0)
(25.777343888 2.82826585501 0)
(27.2804780346 2.34755148584 0)
(28.4647663648 1.75177255309 0)
(29.2856141233 1.08480195744 0)
(29.7100982893 0.369608131345 0)
(29.7100984275 -0.369608142239 0)
(29.2856142828 -1.08480196751 0)
(28.4647664506 -1.75177256626 0)
(27.2804780679 -2.34755150243 0)
(25.7773438964 -2.82826587981 0)
(24.0105662065 -3.1775122324 0)
(22.0422923889 -3.39376507129 0)
(19.9379359405 -3.4824105649 0)
(17.759266088 -3.4460421574 0)
(15.5861075379 -3.28828281358 0)
(13.4724001563 -3.03429200322 0)
(11.4355997808 -2.71237543289 0)
(9.50358855753 -2.34226626487 0)
(7.71550455096 -1.94636985197 0)
(6.12467918922 -1.54667131476 0)
(4.76366807251 -1.1693192486 0)
(3.61857160759 -0.834977536105 0)
(2.70865923534 -0.561888634611 0)
(2.00272277117 -0.360921451358 0)
(1.44694749519 -0.231098512897 0)
(1.01602659341 -0.148835303497 0)
(0.723715582979 -0.11873348921 0)
(0.502011927656 -0.112747162259 0)
(0.315973769103 -0.096488025239 0)
(0.185928459713 -0.0740511545464 0)
(0.10340809796 -0.0465270944243 0)
(0.0527653945919 -0.0187792172799 0)
(0.023012884964 0.0083883100136 0)
(0.009252616091 0.0340669638847 0)
(0.00870524291409 0.0535860653427 0)
(0.0196956357702 0.0559016785113 0)
(0.0332737936575 0.024887217216 0)
(0.0332737939273 -0.0248872149339 0)
(0.019695636194 -0.0559016774143 0)
(0.00870524292897 -0.0535860654021 0)
(0.0092526154087 -0.0340669646558 0)
(0.0230128838677 -0.00838831108793 0)
(0.0527653947133 0.0187792169826 0)
(0.103408099901 0.0465270953417 0)
(0.18592846212 0.0740511555819 0)
(0.315973767938 0.0964880239458 0)
(0.50201192591 0.112747162143 0)
(0.723715575026 0.118733487592 0)
(1.01602657806 0.148835300282 0)
(1.44694747266 0.231098506236 0)
(2.00272274389 0.360921440467 0)
(2.7086592061 0.561888618567 0)
(3.61857157229 0.834977520582 0)
(4.57782248229 1.15720391044 0)
(5.88617146541 1.5290845512 0)
(7.41599907266 1.9251826051 0)
(9.14800953983 2.32242259706 0)
(11.0337164758 2.69847657272 0)
(13.029897621 3.02944500369 0)
(15.1063924749 3.29245094121 0)
(17.2453243804 3.46303538622 0)
(19.3992020282 3.51214333979 0)
(21.4886555079 3.43266140237 0)
(23.4468607548 3.22182396735 0)
(25.2057563668 2.87033677831 0)
(26.705301445 2.38632415503 0)
(27.8910878421 1.78646524396 0)
(28.7145684922 1.11028379959 0)
(29.1386254981 0.378296436007 0)
(29.1386256483 -0.378296446317 0)
(28.7145686644 -1.11028380905 0)
(27.8910879369 -1.78646525625 0)
(26.7053014829 -2.38632417064 0)
(25.2057563774 -2.87033680203 0)
(23.446860761 -3.22182400002 0)
(21.488655535 -3.43266144634 0)
(19.3992020602 -3.51214338441 0)
(17.2453244444 -3.46303545765 0)
(15.1063925018 -3.29245098163 0)
(13.0298976576 -3.02944504886 0)
(11.0337165132 -2.69847661046 0)
(9.14800957783 -2.32242263074 0)