/*--------------------------------*- C++ -*----------------------------------*\
| =========                 |                                                 |
| \\      /  F ield         | OpenFOAM: The Open Source CFD Toolbox           |
|  \\    /   O peration     | Version:  2.4.0                                 |
|   \\  /    A nd           | Web:      www.OpenFOAM.org                      |
|    \\/     M anipulation  |                                                 |
\*---------------------------------------------------------------------------*/
FoamFile
{
    version     2.0;
    format      ascii;
    class       surfaceVectorField;
    location    "24.4480664";
    object      qSurf;
}
// * * * * * * * * * * * * * * * * * * * * * * * * * * * * * * * * * * * * * //

dimensions      [1 0 -3 0 0 0 0];

internalField   nonuniform List<vector> 
7616
(
(8.87583483095 2.33889386482 0)
(6.60077168822 1.93980483788 0)
(7.57494119357 2.07407160187 0)
(11.3039216048 2.71317308963 0)
(9.88209750153 2.46437360149 0)
(13.6673622538 3.03742987978 0)
(12.2327901723 2.82084599523 0)
(16.087976309 3.2627700093 0)
(14.6001606742 3.1063301816 0)
(18.5123769879 3.36017043223 0)
(17.0021565809 3.28023187034 0)
(20.7618196045 3.35765684778 0)
(19.3475253544 3.34235077876 0)
(22.8717110789 3.26231063951 0)
(21.5541066318 3.30331902137 0)
(24.8470150387 3.08196086739 0)
(23.6242642069 3.17881417502 0)
(26.6976043102 2.77039162417 0)
(25.5631350313 2.96145815909 0)
(28.3273951226 2.38584783654 0)
(27.3471464108 2.64454074772 0)
(29.6524378455 2.02174463755 0)
(28.8905052281 2.2956507906 0)
(30.7277777132 1.5933246768 0)
(30.1882903893 1.89938005119 0)
(31.5429134065 1.1772869703 0)
(31.2397691733 1.48716118537 0)
(32.0801421744 0.767471972705 0)
(32.0340780027 1.08170322257 0)
(32.3856021312 0.319995938353 0)
(32.5681398853 0.649343159194 0)
(32.4875974726 -2.47569156931e-07 0)
(32.8535019193 0.19689111749 0)
(32.3856027238 -0.319995566615 0)
(32.8535019673 -0.196891134282 0)
(32.0801410141 -0.767472006052 0)
(32.5681399325 -0.649343177196 0)
(31.5429139204 -1.17728701457 0)
(32.0340780181 -1.08170324701 0)
(30.7277771849 -1.59332462974 0)
(31.2397691672 -1.48716121321 0)
(29.6524381482 -2.02174472356 0)
(30.1882903821 -1.89938008872 0)
(28.3273948516 -2.3858478262 0)
(28.8905052249 -2.29565084028 0)
(26.697604402 -2.77039174928 0)
(27.3471464489 -2.64454080792 0)
(24.8464649636 -3.08196217577 0)
(25.563134883 -2.96145827689 0)
(22.8717112644 -3.26231066431 0)
(23.6242643712 -3.17881417939 0)
(20.7618196527 -3.35765688691 0)
(21.5541066801 -3.30331906252 0)
(18.5123769893 -3.36017046529 0)
(19.3475253418 -3.34235080473 0)
(16.0879763609 -3.26277006053 0)
(17.0021566065 -3.2802319111 0)
(13.6673623042 -3.03742992753 0)
(14.600160723 -3.10633022951 0)
(11.3039216502 -2.71317313136 0)
(12.2327902211 -2.82084603929 0)
(8.87583487993 -2.33889390434 0)
(9.88209754826 -2.46437364014 0)
(6.600779165 -1.93987532465 0)
(7.57494124024 -2.07407164226 0)
(4.61827889928 -1.56346885277 0)
(5.48833076022 -1.68694969939 0)
(2.9393899971 -1.22150181917 0)
(3.70608504783 -1.33328400615 0)
(1.73766907855 -0.900444949996 0)
(2.30939972393 -1.02057684666 0)
(0.980735672484 -0.62168741167 0)
(1.34807998768 -0.737060081236 0)
(0.544468419499 -0.40905242601 0)
(0.759320919137 -0.501846554577 0)
(0.299649182683 -0.256753949073 0)
(0.420101589567 -0.324259628531 0)
(0.157950018902 -0.150291634747 0)
(0.226645394856 -0.197869608774 0)
(0.0829086279417 -0.0882588914682 0)
(0.12122996301 -0.117764636614 0)
(0.0439637682438 -0.055185555852 0)
(0.0647309323981 -0.0710884533113 0)
(0.0213226907936 -0.0329409105992 0)
(0.033400941383 -0.0436869529454 0)
(0.00986995172228 -0.0212085280153 0)
(0.0156896398928 -0.0264774365078 0)
(0.00373796040019 -0.0154333858749 0)
(0.00702298951824 -0.0181049030695 0)
(0.000528006035203 -0.0120635895642 0)
(0.00244910456409 -0.013679495567 0)
(-0.00148649938177 -0.00850583283794 0)
(-0.000210895396006 -0.0102940862313 0)
(-0.00275245517055 -0.00417619710348 0)
(-0.00187846391224 -0.00656494860198 0)
(-0.00313756849909 4.51188656422e-11 0)
(-0.0027130476158 -0.00224711298211 0)
(-0.00275245518178 0.00417619716109 0)
(-0.00271304762018 0.00224711306806 0)
(-0.00148649942084 0.00850583282424 0)
(-0.0018784639397 0.00656494862969 0)
(0.000528005975372 0.0120635895407 0)
(-0.000210895446268 0.0102940862195 0)
(0.0037379603352 0.0154333858768 0)
(0.00244910450416 0.0136794955599 0)
(0.00986995160022 0.0212085279488 0)
(0.00702298942913 0.0181049030358 0)
(0.0213226904613 0.0329409102828 0)
(0.0156896396485 0.0264774362698 0)
(0.0439637673027 0.0551855546621 0)
(0.0334009407448 0.0436869522414 0)
(0.0829828503758 0.0883713682745 0)
(0.0647309304611 0.071088450944 0)
(0.15795001522 0.150291631038 0)
(0.12122995923 0.117764632361 0)
(0.29964918072 0.256753947072 0)
(0.226645392723 0.197869606637 0)
(0.544468415 0.409052422199 0)
(0.420101586686 0.324259625879 0)
(0.980735661339 0.62168740199 0)
(0.75932091185 0.501846548121 0)
(1.73766905761 0.900444932447 0)
(1.34807997221 0.737060067927 0)
(2.93938996235 1.2215017926 0)
(2.30939969726 1.02057682555 0)
(4.61827884981 1.56346881988 0)
(3.70608500541 1.33328397734 0)
(5.48833070954 1.68694966653 0)
(8.5143717274 2.08708483682 0)
(6.4409104379 1.69085544509 0)
(7.34709728554 1.83018734056 0)
(10.7751013292 2.48613545422 0)
(9.43064352763 2.22799533627 0)
(13.0898887214 2.82958371605 0)
(11.6925401667 2.60634026948 0)
(15.4198626517 3.08806890766 0)
(13.9618840472 2.91385322594 0)
(17.8071540417 3.2305597445 0)
(16.2859356902 3.12664924311 0)
(20.1247896454 3.25666445798 0)
(18.6431723432 3.22496961273 0)
(22.3034988373 3.18949220146 0)
(20.89586902 3.21796932136 0)
(24.3506267007 3.03928623229 0)
(23.0500663393 3.11591873058 0)
(26.2179339141 2.81379385202 0)
(25.0080246613 2.95906736081 0)
(27.9305374933 2.49110589383 0)
(26.8259580493 2.70524629858 0)
(29.4129999242 2.09725890219 0)
(28.4686175566 2.36206384103 0)
(30.6308730072 1.68309024685 0)
(29.868558173 1.95450950525 0)
(31.5781389249 1.28550576892 0)
(31.0036177266 1.54353089697 0)
(32.2493073186 0.88696691832 0)
(31.8516846195 1.16290190586 0)
(32.6658856621 0.457260775308 0)
(32.4261894853 0.736597037647 0)
(32.8155430222 2.53670025896e-08 0)
(32.7425357156 0.244957547744 0)
(32.6658856448 -0.45726084674 0)
(32.7425357543 -0.244957565418 0)
(32.2493075807 -0.88696694084 0)
(32.4261895502 -0.736597054619 0)
(31.5781388367 -1.28550578557 0)
(31.8516846316 -1.16290192954 0)
(30.6308730802 -1.68309029638 0)
(31.0036177282 -1.54353092422 0)
(29.4129998726 -2.09725893236 0)
(29.8685581633 -1.95450954143 0)
(27.930537547 -2.4911059633 0)
(28.4686175599 -2.36206388943 0)
(26.2179338616 -2.81379393346 0)
(26.8259580792 -2.7052463577 0)
(24.3503352857 -3.03931911653 0)
(25.0080245636 -2.95906746807 0)
(22.3034989326 -3.18949222072 0)
(23.050066478 -3.11591874493 0)
(20.1247896802 -3.25666449657 0)
(20.8958690562 -3.21796936101 0)
(17.8071540295 -3.23055977057 0)
(18.6431723511 -3.22496964543 0)
(15.4198626894 -3.08806895063 0)
(16.2859357128 -3.1266492804 0)
(13.0898887768 -2.82958376312 0)
(13.9618840932 -2.91385327021 0)
(10.7751013803 -2.48613549568 0)
(11.6925402198 -2.60634031298 0)
(8.51437177707 -2.08708487445 0)
(9.43064357614 -2.22799537371 0)
(6.44077754697 -1.69091153133 0)
(7.34709734844 -1.83018738132 0)
(4.55906914746 -1.31492330411 0)
(5.39832072108 -1.44549022417 0)
(3.02571224408 -1.00787879151 0)
(3.7353361766 -1.11130919549 0)
(1.88900013081 -0.771940131454 0)
(2.43410302751 -0.859784941683 0)
(1.09074520957 -0.548647648507 0)
(1.47807972666 -0.642478298779 0)
(0.601246913837 -0.362474212834 0)
(0.83845824418 -0.444839084101 0)
(0.324264641033 -0.22319153402 0)
(0.457804251555 -0.287595991153 0)
(0.173740794243 -0.131784051395 0)
(0.24631223318 -0.17401705684 0)
(0.0949815122716 -0.0796604132516 0)
(0.135670379408 -0.106402686064 0)
(0.051861850755 -0.0499220718965 0)
(0.0742398451577 -0.0650155368735 0)
(0.026271682554 -0.0304668315609 0)
(0.0400247207842 -0.0412761707586 0)
(0.012029460249 -0.0176136553345 0)
(0.0190756946003 -0.0241059794072 0)
(0.00504622640351 -0.0123718989964 0)
(0.00861124884569 -0.0149287819155 0)
(0.0016803295616 -0.00978792656235 0)
(0.00343141826891 -0.0108234285353 0)
(-0.000256248472687 -0.00757543488864 0)
(0.000851092634641 -0.0084033267692 0)
(-0.00146447668063 -0.00388791162767 0)
(-0.000608844961278 -0.00573409965442 0)
(-0.00198082579362 6.62426979312e-11 0)
(-0.0014353380711 -0.00181850740786 0)
(-0.00146447670304 0.0038879117281 0)
(-0.0014353380816 0.00181850753402 0)
(-0.000256248511295 0.00757543493992 0)
(-0.0006088449926 0.00573409974201 0)
(0.00168032952052 0.00978792661028 0)
(0.000851092598073 0.0084033268312 0)
(0.00504622633783 0.0123718990104 0)
(0.00343141822179 0.0108234285686 0)
(0.0120294600637 0.0176136552281 0)
(0.00861124871902 0.0149287818511 0)
(0.0262716820486 0.0304668311425 0)
(0.019075694235 0.0241059790816 0)
(0.0518618493009 0.0499220704821 0)
(0.0400247198262 0.0412761698644 0)
(0.0950633152211 0.0797682209162 0)
(0.0742398426856 0.0650155344042 0)
(0.173740792492 0.131784049738 0)
(0.135670376181 0.106402682709 0)
(0.324264640505 0.223191533588 0)
(0.246312232986 0.174017056577 0)
(0.601246909487 0.362474209181 0)
(0.457804249426 0.287595989307 0)
(1.09074519864 0.548647639233 0)
(0.838458236921 0.444839077829 0)
(1.88900010864 0.771940114819 0)
(1.4780797107 0.642478286192 0)
(3.02571220512 1.00787876778 0)
(2.43410299809 0.859784922256 0)
(4.55906909292 1.31492327765 0)
(3.73533613065 1.11130916991 0)
(5.39832067718 1.44549019711 0)
(8.17452848247 1.91304969829 0)
(6.2178007101 1.50550355109 0)
(7.06611887891 1.67174181494 0)
(10.2691897856 2.31993571316 0)
(9.02894391497 2.07812152143 0)
(12.545574899 2.67684788853 0)
(11.1894847295 2.46715389944 0)
(14.8156194513 2.95497709894 0)
(13.4230727729 2.78727741779 0)
(17.1265905394 3.13970258918 0)
(15.6725065852 3.0306850713 0)
(19.4658548146 3.20225747058 0)
(17.9978276779 3.16653892957 0)
(21.7141950505 3.16269356186 0)
(20.2996957342 3.18731447429 0)
(23.8141363496 3.03810130135 0)
(22.4889935204 3.12153105161 0)
(25.7440580226 2.84207160651 0)
(24.5311016416 2.97142095799 0)
(27.4920748722 2.56586543514 0)
(26.3825362621 2.75856637605 0)
(29.0569153562 2.18463159209 0)
(28.0772678305 2.439306808 0)
(30.3598137505 1.7815590784 0)
(29.5499560559 2.04368229932 0)
(31.3834118612 1.3807074413 0)
(30.7523523509 1.63962649411 0)
(32.1191203311 0.9662512857 0)
(31.6659679115 1.22378942313 0)
(32.5657126898 0.532146096584 0)
(32.2768115948 0.78697917212 0)
(32.7225417234 -2.103906811e-08 0)
(32.5999288034 0.290808807782 0)
(32.5657127905 -0.532146091558 0)
(32.5999288517 -0.290808824242 0)
(32.1191203424 -0.966251312164 0)
(32.2768116636 -0.786979188368 0)
(31.3834118849 -1.38070746325 0)
(31.6659679308 -1.22378944595 0)
(30.3598137257 -1.78155910913 0)
(30.7523523538 -1.63962652087 0)
(29.0569153658 -2.18463163114 0)
(29.5499560494 -2.04368233429 0)
(27.4920748716 -2.56586549119 0)
(28.0772678339 -2.43930685439 0)
(25.7440580059 -2.84207168337 0)
(26.3825362904 -2.7585664339 0)
(23.8139299475 -3.038128638 0)
(24.5311015795 -2.97142105303 0)
(21.7141951211 -3.1626935856 0)
(22.4889936404 -3.12153107726 0)
(19.4658548529 -3.20225751088 0)
(20.2996957612 -3.18731451138 0)
(17.126590572 -3.13970263103 0)
(17.9978277472 -3.16653898579 0)
(14.8156194846 -2.95497713848 0)
(15.672506622 -3.03068511298 0)
(12.5455749503 -2.67684793211 0)
(13.4230728156 -2.78727745908 0)
(10.2691898398 -2.31993575346 0)
(11.1894847809 -2.46715394035 0)
(8.17452854129 -1.91304973429 0)
(9.02894396616 -2.07812155752 0)
(6.21817058362 -1.50552371825 0)
(7.06611893056 -1.67174184837 0)
(4.44459281982 -1.13888179241 0)
(5.23018230394 -1.28972848095 0)
(3.03474185027 -0.850983709484 0)
(3.66759166525 -0.964540995216 0)
(1.96110766009 -0.655901665478 0)
(2.46451444796 -0.733042500257 0)
(1.18111066259 -0.487002908271 0)
(1.55455469555 -0.561455783057 0)
(0.649386692912 -0.324047141818 0)
(0.90471292339 -0.399810652758 0)
(0.345416080838 -0.199235411146 0)
(0.492943387031 -0.26108829689 0)
(0.190242793072 -0.123098893943 0)
(0.268953734316 -0.163324491349 0)
(0.105512704147 -0.0759635388435 0)
(0.149985442153 -0.10203630887 0)
(0.0573492136111 -0.0459498658567 0)
(0.0825152240186 -0.0626554334153 0)
(0.0309727552367 -0.030152054406 0)
(0.0449420321994 -0.0392918127237 0)
(0.0138698130431 -0.0162720789679 0)
(0.0225739911705 -0.0238072583963 0)
(0.00564017103628 -0.00910331775924 0)
(0.00986492158632 -0.012756250888 0)
(0.00235547252768 -0.00667766785953 0)
(0.00390190843134 -0.00750007143864 0)
(0.000813641105 -0.00529557682779 0)
(0.0016277996205 -0.005641813221 0)
(2.77525288456e-05 -0.00276019946835 0)
(0.000695578723589 -0.00369195659362 0)
(-0.000401416588435 8.0669738338e-11 0)
(0.000187333706835 -0.00147004939637 0)
(2.77525032624e-05 0.0027601996332 0)
(0.000187333694368 0.00147004956706 0)
(0.000813641081485 0.00529557697364 0)
(0.000695578699984 0.00369195676274 0)
(0.00235547250551 0.00667766795674 0)
(0.00162779960495 0.00564181335567 0)
(0.00564017095257 0.00910331774453 0)
(0.00390190838484 0.00750007147572 0)
(0.0138698127689 0.0162720787543 0)
(0.00986492140378 0.0127562507512 0)
(0.0309727545109 0.0301520538068 0)
(0.0225739906665 0.0238072579427 0)
(0.0573492116739 0.0459498642606 0)
(0.0449420308704 0.0392918116001 0)
(0.105597252988 0.0760631904491 0)
(0.0825152215259 0.0626554311413 0)
(0.190242793048 0.123098893846 0)
(0.149985440121 0.102036306643 0)
(0.345416080636 0.199235411099 0)
(0.268953734957 0.163324491847 0)
(0.649386688586 0.324047138175 0)
(0.492943384945 0.261088295057 0)
(1.18111065098 0.48700289934 0)
(0.904712915999 0.399810646653 0)
(1.96110763635 0.65590164994 0)
(1.55455467887 0.561455771121 0)
(3.03474181209 0.850983686903 0)
(2.46451441801 0.733042481804 0)
(4.44459277543 1.13888176365 0)
(3.66759162118 0.964540970454 0)
(5.23018225439 1.28972845129 0)
(7.82384905286 1.78603234229 0)
(5.96066654391 1.37587917326 0)
(6.76610697173 1.55274081548 0)
(9.83781187795 2.20126478671 0)
(8.66663140751 1.96582199354 0)
(12.0330269301 2.56965061827 0)
(10.7346987371 2.36024860801 0)
(14.2625253834 2.86381742945 0)
(12.9282888528 2.69345637248 0)
(16.5274723902 3.07516417681 0)
(15.1302781387 2.95709012269 0)
(18.8658529425 3.17037216961 0)
(17.4193019642 3.12557601914 0)
(21.1496048242 3.16494788712 0)
(19.7382111651 3.18117791733 0)
(23.296493121 3.06855730697 0)
(21.9604150135 3.14377996191 0)
(25.2836784623 2.89532492774 0)
(24.0508027624 3.01697418864 0)
(27.0867534407 2.6356936031 0)
(25.961968466 2.81394874376 0)
(28.7056623156 2.28206535271 0)
(27.7003093186 2.51841951534 0)
(30.0796926748 1.88574376606 0)
(29.2277246245 2.14255802721 0)
(31.1722864025 1.46362940564 0)
(30.4916855042 1.73362707925 0)
(31.9621001698 1.0178929935 0)
(31.4623374066 1.2860392456 0)
(32.4330356681 0.551905100843 0)
(32.10874563 0.818037765439 0)
(32.5901721243 -1.09448801989e-08 0)
(32.4354322426 0.295952118938 0)
(32.4330357595 -0.551905111565 0)
(32.4354322979 -0.295952134671 0)
(31.9621002326 -1.01789301676 0)
(32.1087457064 -0.818037780986 0)
(31.1722864121 -1.46362942658 0)
(31.4623374317 -1.28603926745 0)
(30.0796926698 -1.88574379849 0)
(30.4916855098 -1.73362710512 0)
(28.7056623158 -2.28206538948 0)
(29.2277246197 -2.14255806118 0)
(27.086753447 -2.63569365966 0)
(27.7003093224 -2.51841956013 0)
(25.2836784541 -2.89532499637 0)
(25.961968493 -2.81394880018 0)
(23.2963237115 -3.06857505672 0)
(24.0508027278 -3.01697427272 0)
(21.1496048773 -3.1649479156 0)
(21.9604151186 -3.14377999755 0)
(18.8658529946 -3.17037221547 0)
(19.7382111878 -3.18117795412 0)
(16.5274724349 -3.07516422301 0)
(17.4193020573 -3.12557608499 0)
(14.2625254154 -2.8638174674 0)
(15.1302781928 -2.95709017061 0)
(12.0330269754 -2.56965065774 0)
(12.9282888967 -2.69345641306 0)
(9.83781193101 -2.20126482535 0)
(10.7346987847 -2.36024864585 0)
(7.82384910273 -1.786032377 0)
(8.66663145568 -1.96582202814 0)
(5.96036695193 -1.37583661997 0)
(6.76610703495 -1.55274085084 0)
(4.31204411309 -1.02160756568 0)
(5.0524533566 -1.17419890508 0)
(2.9853090483 -0.74417916011 0)
(3.58838310825 -0.861596345394 0)
(1.98016701636 -0.559178669722 0)
(2.4515867958 -0.635127655172 0)
(1.23319335105 -0.428464222006 0)
(1.59238301662 -0.488074562573 0)
(0.694303743602 -0.292973297632 0)
(0.957115976695 -0.359274744439 0)
(0.377413098647 -0.1889356552 0)
(0.52871313615 -0.240232562165 0)
(0.209395606812 -0.119671820246 0)
(0.293336077835 -0.157320898337 0)
(0.116912875017 -0.0744724742938 0)
(0.164300914044 -0.100257702984 0)
(0.0635860450881 -0.0455075636016 0)
(0.0909721310239 -0.0620663187069 0)
(0.034489904464 -0.0288924359684 0)
(0.0494026985081 -0.0382247533183 0)
(0.0162947054011 -0.0159801776209 0)
(0.0258635822232 -0.0237183365551 0)
(0.00621245410877 -0.00590586612226 0)
(0.0112426560499 -0.0113502419082 0)
(0.00251736196534 -0.00274400966078 0)
(0.00430018189182 -0.0042124367924 0)
(0.00173777879672 -0.00156545340497 0)
(0.00223054223716 -0.0020924521988 0)
(0.00175930290527 -0.00105023466023 0)
(0.00205169317115 -0.000805178637902 0)
(0.00163309177015 1.08974858293e-10 0)
(0.0021387786682 -0.000620073440527 0)
(0.00175930288987 0.00105023491579 0)
(0.00213877866119 0.000620073681319 0)
(0.00173777879906 0.00156545364764 0)
(0.00205169316688 0.000805178902459 0)
(0.0025173619571 0.00274400978906 0)
(0.0022305422415 0.0020924523916 0)
(0.00621245399412 0.00590586606379 0)
(0.00430018183302 0.00421243681221 0)
(0.0162947050228 0.0159801772841 0)
(0.0112426557999 0.0113502416834 0)
(0.0344899034482 0.0288924351323 0)
(0.0258635815429 0.0237183359381 0)
(0.0635860429821 0.0455075619889 0)
(0.0494026968655 0.0382247520135 0)
(0.116999257958 0.0745647775437 0)
(0.0909721290203 0.0620663169221 0)
(0.209395607646 0.119671820872 0)
(0.164300913069 0.100257701632 0)
(0.377413098298 0.188935654986 0)
(0.293336078691 0.157320899016 0)
(0.694303739217 0.292973293944 0)
(0.528713133953 0.240232560207 0)
(1.23319333925 0.42846421319 0)
(0.957115969059 0.359274738439 0)
(1.98016699214 0.559178655111 0)
(1.59238299913 0.488074551294 0)
(2.98530900721 0.744179140585 0)
(2.45158676345 0.635127638474 0)
(4.31204405998 1.02160754323 0)
(3.58838306089 0.861596323929 0)
(5.05245331343 1.1741988804 0)
(7.48277886832 1.68862882354 0)
(5.70848591724 1.27949215338 0)
(6.47261239374 1.46090092881 0)
(9.45911551529 2.10776090226 0)
(8.31651144396 1.87493577793 0)
(11.5674355686 2.48503845292 0)
(10.3210579328 2.27393786096 0)
(13.7567985162 2.79423299402 0)
(12.4570092156 2.62052064963 0)
(15.9888961412 3.02846575143 0)
(14.6329970846 2.89933360866 0)
(18.3034973959 3.16137599718 0)
(16.8901210384 3.09600552081 0)
(20.6092402209 3.18189008687 0)
(19.204527479 3.18468117114 0)
(22.7935409864 3.11315991123 0)
(21.4511890166 3.17524934491 0)
(24.8280534832 2.95367584787 0)
(23.5727161761 3.07511301878 0)
(26.6872314572 2.70801279216 0)
(25.5390019298 2.88205777122 0)
(28.3513195019 2.37763001094 0)
(27.3243799587 2.6015968696 0)
(29.782660603 1.98585222853 0)
(28.9000683511 2.23982877319 0)
(30.9344615852 1.54945275737 0)
(30.2180465659 1.82383935391 0)
(31.7672015819 1.07301108125 0)
(31.2360539793 1.35188622978 0)
(32.2616259004 0.557007357163 0)
(31.9135585105 0.842955456099 0)
(32.4225836107 -1.15423068323e-08 0)
(32.2488915947 0.287646811371 0)
(32.2616260055 -0.557007365956 0)
(32.2488916581 -0.287646826394 0)
(31.7672016448 -1.07301110296 0)
(31.9135585945 -0.842955471041 0)
(30.934461602 -1.54945277794 0)
(31.2360540105 -1.35188625063 0)
(29.7826605971 -1.98585225896 0)
(30.218046574 -1.82383937871 0)
(28.3513195039 -2.37763004759 0)
(28.9000683478 -2.23982880624 0)
(26.687231461 -2.70801284609 0)
(27.3243799626 -2.60159691298 0)
(24.8280534863 -2.95367591087 0)
(25.5390019569 -2.88205782542 0)
(22.7934041619 -3.11317428566 0)
(23.5727161617 -3.07511309457 0)
(20.6092402627 -3.1818901207 0)
(21.4511891105 -3.17524938849 0)
(18.3034974408 -3.16137604104 0)
(19.2045275014 -3.18468120911 0)
(15.9888962213 -3.02846581161 0)
(16.8901211008 -3.09600557461 0)
(13.756798566 -2.7942330385 0)
(14.6329971403 -2.89933365691 0)
(11.5674356127 -2.48503849086 0)
(12.4570092632 -2.62052069076 0)
(9.45911556405 -2.10776093761 0)
(10.3210579804 -2.2739378978 0)
(7.48277892857 -1.68862885622 0)
(8.31651149426 -1.87493581096 0)
(5.7092566603 -1.27962923644 0)
(6.47261243804 -1.46090095284 0)
(4.19961996486 -0.935423938377 0)
(4.86496773844 -1.08589025 0)
(2.93469436244 -0.663525413137 0)
(3.50231646043 -0.785281165181 0)
(1.97502152211 -0.476579555066 0)
(2.41840198702 -0.561664432526 0)
(1.2655099509 -0.372159938383 0)
(1.60410692021 -0.421593041163 0)
(0.740279479926 -0.266166127723 0)
(0.995192881633 -0.320739672927 0)
(0.409679791416 -0.180931632838 0)
(0.567965836906 -0.223946330665 0)
(0.227612298374 -0.117642824263 0)
(0.318999580027 -0.153179876773 0)
(0.127490140123 -0.0748548388916 0)
(0.178847262017 -0.0996364659362 0)
(0.0699180425035 -0.0462858899033 0)
(0.0997320417742 -0.062692471412 0)
(0.0372226181498 -0.027483323333 0)
(0.0540870697888 -0.038286626166 0)
(0.0189046850455 -0.0159965601179 0)
(0.0285857277477 -0.0230759578076 0)
(0.00716543852537 -0.00418979764273 0)
(0.0128371816133 -0.0103564690201 0)
(0.00262355354982 0.0012205570081 0)
(0.00471183061658 -0.00111104993646 0)
(0.00256958442829 0.00286388036733 0)
(0.00266370204697 0.00243993292229 0)
(0.00360344373816 0.00134384844408 0)
(0.00347238397189 0.00270182107524 0)
(0.00400397983318 1.51883197463e-10 0)
(0.00438949097307 0.000790413510832 0)
(0.00360344374527 -0.00134384809248 0)
(0.00438949097976 -0.00079041316928 0)
(0.00256958445482 -0.00286388004812 0)
(0.00347238399663 -0.00270182071409 0)
(0.002623553544 -0.00122055686912 0)
(0.00266370206937 -0.00243993268137 0)
(0.00716543836004 0.0041897975151 0)
(0.00471183053422 0.00111104992389 0)
(0.0189046845477 0.0159965596538 0)
(0.0128371812832 0.0103564686968 0)
(0.0372226168011 0.0274833222677 0)
(0.0285857268434 0.0230759570021 0)
(0.0699180406657 0.0462858885467 0)
(0.0540870680118 0.0382866247991 0)
(0.127576678287 0.0749391932039 0)
(0.0997320405795 0.0626924702654 0)
(0.227612299358 0.117642825118 0)
(0.178847261737 0.0996364651521 0)
(0.409679790798 0.180931632361 0)
(0.31899958089 0.153179877398 0)
(0.740279474963 0.266166123994 0)
(0.567965834432 0.223946328561 0)
(1.26550993769 0.372159930329 0)
(0.99519287328 0.320739667137 0)
(1.9750214947 0.476579541799 0)
(1.6041069013 0.421593030529 0)
(2.93469432129 0.66352539349 0)
(2.41840195412 0.561664416252 0)
(4.19961991892 0.93542390782 0)
(3.50231641704 0.785281143072 0)
(4.8649676885 1.08589021915 0)
(7.16166732118 1.61226423355 0)
(5.4639254373 1.20602519332 0)
(6.19390435851 1.38843365874 0)
(9.09139514776 2.03130704206 0)
(7.97776420869 1.79989702544 0)
(11.1269190915 2.41562518036 0)
(9.93588169023 2.20280946307 0)
(13.2822355221 2.73962336105 0)
(12.0082863289 2.5611597466 0)
(15.4920362866 2.99259624722 0)
(14.1642959979 2.85429889019 0)
(17.7845919226 3.15346035192 0)
(16.3959242452 3.07381733651 0)
(20.0891284247 3.20628913432 0)
(18.6901611786 3.19528245371 0)
(22.3022712864 3.16443582926 0)
(20.9512226451 3.21432614205 0)
(24.3734439082 3.02447175927 0)
(23.1007563709 3.13674451893 0)
(26.2841539799 2.78945684219 0)
(25.1097085099 2.95791545292 0)
(27.9950520391 2.47221648169 0)
(26.9423226604 2.68734251575 0)
(29.4753681628 2.08310586691 0)
(28.5611191975 2.33533593909 0)
(30.6752236466 1.62858163873 0)
(29.9260270527 1.91053448282 0)
(31.5451346621 1.11892133674 0)
(30.9839154288 1.41690561798 0)
(32.0604117627 0.558185583696 0)
(31.6881739169 0.867152674847 0)
(32.2276132827 -1.02831511625e-08 0)
(32.0380862872 0.284935873136 0)
(32.0604118787 -0.558185593447 0)
(32.0380863589 -0.284935887573 0)
(31.545134734 -1.11892135703 0)
(31.688174009 -0.867152689286 0)
(30.6752236673 -1.62858165871 0)
(30.9839154661 -1.41690563785 0)
(29.4753681593 -2.08310589606 0)
(29.9260270635 -1.91053450648 0)
(27.9950520408 -2.47221651777 0)
(28.5611191956 -2.33533597116 0)
(26.2841539833 -2.78945689424 0)
(26.9423226642 -2.68734255784 0)
(24.3734439191 -3.0244718175 0)
(25.1097085373 -2.95791550519 0)
(22.3021568626 -3.16444355641 0)
(23.1007563718 -3.13674458694 0)
(20.0891284607 -3.20628917272 0)
(20.9512227305 -3.21432619267 0)
(17.7845919568 -3.15346039245 0)
(18.6901612012 -3.1952824929 0)
(15.4920363576 -2.99259630329 0)
(16.3959242775 -3.07381737788 0)
(13.2822355788 -2.73962340777 0)
(14.1642960463 -2.85429893501 0)
(11.1269191393 -2.4156252187 0)
(12.0082863778 -2.5611597877 0)
(9.09139519505 -2.03130707569 0)
(9.93588173784 -2.20280949911 0)
(7.16166736348 -1.61226426452 0)
(7.97776425723 -1.79989705681 0)
(5.4630337548 -1.20584756992 0)
(6.19390440543 -1.38843369793 0)
(4.06279777537 -0.867789257815 0)
(4.68103419478 -1.01850870673 0)
(2.87153410948 -0.607361392608 0)
(3.41254831203 -0.725210453193 0)
(1.9499071772 -0.42313298469 0)
(2.37458347012 -0.50534792643 0)
(1.27368434008 -0.323213844905 0)
(1.5969680571 -0.365880968112 0)
(0.780779739228 -0.246213603569 0)
(1.02076276448 -0.28488135466 0)
(0.441233970119 -0.17270866491 0)
(0.607560090979 -0.210616743788 0)
(0.247986339751 -0.117495600996 0)
(0.344641051471 -0.148961392682 0)
(0.139112897858 -0.0764397879253 0)
(0.194228592504 -0.0998793745833 0)
(0.0767820110908 -0.0476341248239 0)
(0.108857183574 -0.064088190318 0)
(0.0404057943573 -0.0272366206689 0)
(0.0592218400366 -0.0390536885821 0)
(0.0208135044791 -0.0150758707846 0)
(0.0310046917214 -0.0221271924046 0)
(0.00802756898654 -0.00235197187004 0)
(0.0144572497612 -0.00930147034933 0)
(0.00278561022593 0.00591223101804 0)
(0.00515822312777 0.00199507659972 0)
(0.00350980947593 0.00784349612833 0)
(0.00302067361271 0.00766613860502 0)
(0.00576852340301 0.00424473670095 0)
(0.00498724582481 0.00685283417472 0)
(0.00666599986212 2.2386050587e-10 0)
(0.00697900679304 0.00253503261763 0)
(0.00576852344442 -0.00424473622662 0)
(0.00697900681993 -0.00253503214137 0)
(0.0035098095328 -0.00784349573858 0)
(0.00498724588642 -0.00685283372063 0)
(0.00278561021408 -0.00591223087873 0)
(0.00302067364804 -0.00766613833703 0)
(0.00802756876068 0.00235197165875 0)
(0.00515822301334 -0.00199507665461 0)
(0.0208135038216 0.0150758701591 0)
(0.0144572493335 0.00930146991446 0)
(0.0404057927761 0.027236619436 0)
(0.031004690584 0.0221271914194 0)
(0.0767820099208 0.0476341239324 0)
(0.0592218383818 0.0390536873149 0)
(0.139198962937 0.0765164043491 0)
(0.108857183278 0.0640881898177 0)
(0.24798634079 0.117495601865 0)
(0.194228592614 0.0998793740851 0)
(0.441233969238 0.172708664167 0)
(0.344641052227 0.148961393155 0)
(0.780779734259 0.246213599681 0)
(0.607560088148 0.210616741488 0)
(1.27368432654 0.323213836587 0)
(1.02076275515 0.284881348769 0)
(1.94990714954 0.423132971343 0)
(1.59696803669 0.365880957939 0)
(2.8715340677 0.607361376171 0)
(2.374583436 0.505347912038 0)
(4.06279772523 0.867789240009 0)
(3.41254826515 0.725210436521 0)
(4.6810341459 1.0185086877 0)
(6.8591601791 1.55023360541 0)
(5.23950300105 1.14963140617 0)
(5.93473880813 1.33090724559 0)
(8.73112142558 1.96782601004 0)
(7.65367458111 1.7380794802 0)
(10.7228361097 2.35951629494 0)
(9.56428965369 2.14325651774 0)
(12.832496692 2.69525056044 0)
(11.5846279225 2.51114513527 0)
(15.0266947842 2.96265641465 0)
(13.7159310896 2.81862315242 0)
(17.2862301438 3.15427038731 0)
(15.9225932034 3.0596253276 0)
(19.5821328697 3.23809674266 0)
(18.1926575907 3.2095460293 0)
(21.8168386708 3.21988797126 0)
(20.4588105687 3.25619792035 0)
(23.9196868398 3.09774306878 0)
(22.6313538327 3.19899077445 0)
(25.8733165579 2.87119816579 0)
(24.6737154224 3.03522102058 0)
(27.62840408 2.56318099903 0)
(26.5480912124 2.77500683417 0)
(29.1503723622 2.17484997864 0)
(28.2061739707 2.4286120813 0)
(30.3922218549 1.70538542656 0)
(29.6115747565 1.99407401062 0)
(31.2903416771 1.16344309636 0)
(30.7026685897 1.47902501943 0)
(31.8293653118 0.574614660024 0)
(31.4308284291 0.89562567847 0)
(32.0096845665 -9.80629577274e-09 0)
(31.797820905 0.291072474032 0)
(31.82936544 -0.574614670009 0)
(31.7978209854 -0.291072487987 0)
(31.2903417569 -1.16344311539 0)
(31.4308285296 -0.895625692348 0)
(30.39222188 -1.70538544572 0)
(30.7026686333 -1.47902503833 0)
(29.1503723604 -2.17485000637 0)
(29.6115747699 -1.99407403316 0)
(27.6284040818 -2.56318103435 0)
(28.2061739702 -2.42861211229 0)
(25.8733165612 -2.8711982156 0)
(26.5480912163 -2.77500687497 0)
(23.9196868594 -3.09774312243 0)
(24.67371545 -3.03522107159 0)
(21.8167433046 -3.21989056359 0)
(22.631353845 -3.19899083592 0)
(19.5821329013 -3.23809678623 0)
(20.4588106478 -3.25619797636 0)
(17.2862301742 -3.1542704272 0)
(18.192657613 -3.20954606924 0)
(15.0266948209 -2.96265645592 0)
(15.9225932185 -3.05962536175 0)
(12.8324967442 -2.69525060473 0)
(13.7159311312 -2.81862319388 0)
(10.7228361594 -2.35951633355 0)
(11.5846279708 -2.51114517552 0)
(8.73112147349 -1.96782604313 0)
(9.56428970093 -2.14325655268 0)
(6.85916023114 -1.55023363739 0)
(7.65367462907 -1.73807951152 0)
(5.2395030477 -1.1496314403 0)
(5.93473886145 -1.33090727854 0)
(3.92062884519 -0.815587028739 0)
(4.50047541445 -0.965988001028 0)
(2.81165140116 -0.563258579692 0)
(3.31577767881 -0.677381514959 0)
(1.91877916044 -0.380036531172 0)
(2.32780048132 -0.462864724149 0)
(1.27468371818 -0.275925025633 0)
(1.57764664466 -0.32179107032 0)
(0.812256239042 -0.223816048544 0)
(1.0371902937 -0.251664375503 0)
(0.475460208874 -0.166025047147 0)
(0.64342730669 -0.197426862292 0)
(0.270544944249 -0.118461857014 0)
(0.370509534024 -0.144446727736 0)
(0.151443408294 -0.0781252088662 0)
(0.210981140395 -0.100892145981 0)
(0.0839617967851 -0.0487251065531 0)
(0.118503319186 -0.0659734382335 0)
(0.0443910283614 -0.0278506262274 0)
(0.0646654916384 -0.0400147929553 0)
(0.0223742030965 -0.0131998827294 0)
(0.0335087133371 -0.0213856834103 0)
(0.00911115791482 -0.00057645603736 0)
(0.0160144146152 -0.00789793706679 0)
(0.00305794672083 0.0110037498557 0)