/*--------------------------------*- C++ -*----------------------------------*\
| =========                 |                                                 |
| \\      /  F ield         | OpenFOAM: The Open Source CFD Toolbox           |
|  \\    /   O peration     | Version:  2.4.0                                 |
|   \\  /    A nd           | Web:      www.OpenFOAM.org                      |
|    \\/     M anipulation  |                                                 |
\*---------------------------------------------------------------------------*/
FoamFile
{
    version     2.0;
    format      ascii;
    class       volVectorField;
    location    "24.4480664";
    object      qWall;
}
// * * * * * * * * * * * * * * * * * * * * * * * * * * * * * * * * * * * * * //

dimensions      [1 0 -3 0 0 0 0];

internalField   uniform (0 0 0);

boundaryField
{
    DIRICHLETINLET
    {
        type            calculated;
        value           uniform (0 0 0);
    }
    OUTFLOW
    {
        type            calculated;
        value           uniform (0 0 0);
    }
    PERIODIC
    {
        type            empty;
    }
    WALL
    {
        type            calculated;
        value           nonuniform List<vector> 
64
(
(17.7841645853 3.6935361508 0)
(21.7265711934 3.18034309584 0)
(24.768937892 2.44848002794 0)
(26.942915679 1.68232665392 0)
(28.8160155253 0.824653783795 0)
(30.1142262791 0.077732835734 0)
(31.297362824 -0.732570589454 0)
(32.1452290308 -1.42563590323 0)
(32.625394767 -1.86169239911 0)
(32.9939460061 -2.22386313634 0)
(33.178158969 -2.39269989805 0)
(33.1728673672 -2.2464713362 0)
(33.176102712 -2.11031818629 0)
(33.0808560589 -1.62703714794 0)
(32.9763091628 -0.830288504686 0)
(32.9664017004 -0.518959000596 0)
(32.9664016544 0.518958964689 0)
(32.9763092759 0.830288485157 0)
(33.0808560205 1.62703710362 0)
(33.1761027268 2.11031814152 0)
(33.1728673098 2.24647127855 0)
(33.1781589768 2.39269983391 0)
(32.9939460122 2.22386307215 0)
(32.6253945463 1.86169227161 0)
(32.1452291163 1.42563585327 0)
(31.2973628713 0.732570545043 0)
(30.1142262432 -0.0777328835747 0)
(28.8160155206 -0.824653839994 0)
(26.9429156836 -1.68232670944 0)
(24.7689378904 -2.44848007615 0)
(21.7265711999 -3.18034313898 0)
(17.7841646048 -3.69353619511 0)
(12.9473173694 -3.80732419755 0)
(8.9472995038 -3.50911694251 0)
(5.90016283817 -2.97586290711 0)
(3.98054854638 -2.45128727245 0)
(2.57581321801 -1.91534284188 0)
(1.72111397817 -1.49737594904 0)
(1.02047120476 -1.06237541771 0)
(0.598149888458 -0.739287564644 0)
(0.327176616727 -0.486569119596 0)
(0.169660791461 -0.308504643224 0)
(0.0762926191186 -0.178701354405 0)
(0.0368518563983 -0.112774456098 0)
(0.0122356305245 -0.0602898970107 0)
(0.00235847079077 -0.0331007708911 0)
(-0.00193758168578 -0.0165373208125 0)
(-0.00368011859861 -0.00305419670682 0)
(-0.00368011860163 0.00305419657143 0)
(-0.00193758170675 0.016537320656 0)
(0.00235847070035 0.0331007704925 0)
(0.0122356302102 0.0602898959831 0)
(0.0368518555428 0.112774453875 0)
(0.0762926175435 0.178701350895 0)
(0.169660788401 0.308504637456 0)
(0.32717661137 0.486569110912 0)
(0.598149880813 0.73928755385 0)
(1.02047119087 1.06237540267 0)
(1.7211139515 1.49737592576 0)
(2.57581316428 1.91534280504 0)
(3.98054846992 2.45128722647 0)
(5.90016276334 2.97586286108 0)
(8.94729943798 3.50911689716 0)
(12.9473173224 3.8073241557 0)
)
;
    }
}


// ************************************************************************* //
