/*--------------------------------*- C++ -*----------------------------------*\
| =========                 |                                                 |
| \\      /  F ield         | OpenFOAM: The Open Source CFD Toolbox           |
|  \\    /   O peration     | Version:  2.4.0                                 |
|   \\  /    A nd           | Web:      www.OpenFOAM.org                      |
|    \\/     M anipulation  |                                                 |
\*---------------------------------------------------------------------------*/
FoamFile
{
    version     2.0;
    format      ascii;
    class       volScalarField;
    location    "24.4480664";
    object      rho;
}
// * * * * * * * * * * * * * * * * * * * * * * * * * * * * * * * * * * * * * //

dimensions      [1 -3 0 0 0 0 0];

internalField   nonuniform List<scalar> 
3840
(
2.86588413733
3.6546664634
4.51577856721
5.47052201858
6.52957796253
7.62721297688
8.73169786131
9.79298834841
10.8902163602
12.003578378
12.9786973608
13.7960553925
14.4456865603
14.9797764784
15.391634274
15.5265499441
15.5265499716
15.3916342695
14.9797764955
14.445686567
13.7960554209
12.9786973826
12.0035784114
10.8902163947
9.79298842677
8.73169789612
7.62721301981
6.52957800466
5.47052205937
4.5157786055
3.6546664979
2.86588416847
2.2098607964
1.68322000372
1.24920413939
0.910793980605
0.658535746344
0.469781892988
0.328891645308
0.225830696262
0.155205781732
0.103638431928
0.0704114079611
0.04945586299
0.0361588224761
0.0281430826238
0.0235844963855
0.0215296275128
0.0215296274933
0.0235844963039
0.0281430824364
0.0361588221187
0.0494558623638
0.070411406891
0.103638430182
0.155205778721
0.225830691749
0.328891640112
0.469781884904
0.658535735175
0.910793965508
1.24920411946
1.68321997884
2.20986076961
2.87068869575
3.58537982874
4.39368445393
5.27719266898
6.23067983128
7.23342979594
8.22927682687
9.22558551911
10.2165687522
11.1695597281
12.0483275881
12.798770526
13.4319702207
13.9362824653
14.280078829
14.4925196488
14.4925196284
14.2800788517
13.936282467
13.4319702413
12.7987705395
12.0483276188
11.1695597516
10.2165687945
9.22558558324
8.229276858
7.23342983509
6.23067986991
5.27719270678
4.3936844897
3.58537986127
2.87068872431
2.24590138085
1.72528582167
1.30990036818
0.971941821129
0.709235097387
0.511259715912
0.362440368482
0.254086050473
0.177278084657
0.122594446561
0.0829428499558
0.0578006016748
0.0418659569931
0.0321845330768
0.0265587637313
0.0240693147281
0.0240693146939
0.0265587636072
0.0321845328194
0.0418659565401
0.0578006009142
0.0829428486961
0.122594444588
0.177278081474
0.254086045437
0.362440362512
0.511259707334
0.709235086183
0.971941806304
1.30990034883
1.72528579756
2.24590135473
2.86355216915
3.52910864457
4.29046208746
5.11673865858
5.98822737223
6.90358224167
7.82873598556
8.76472719533
9.66629996033
10.5024512546
11.2789534005
11.9595518397
12.5489784815
13.0037033791
13.3074249235
13.4918195089
13.4918195003
13.3074249371
13.0037033837
12.5489784974
11.9595518537
11.2789534268
10.5024512766
9.66630000241
8.76472725239
7.82873601407
6.90358227808
5.98822740831
5.11673869391
4.29046212124
3.52910867568
2.86355219582
2.26997743722
1.76100935296
1.35656247893
1.02344157164
0.75310727674
0.547234009939
0.392265320667
0.279804624499
0.196912995124
0.138615466035
0.0952080390813
0.065865868809
0.0475059687608
0.036022102382
0.0295028702437
0.026556558268
0.0265565582183
0.0295028700779
0.0360221020634
0.0475059682193
0.0658658679237
0.09520803766
0.13861546389
0.196912991728
0.279804618886
0.392265314163
0.547234001182
0.753107265627
1.02344155711
1.35656246018
1.76100932969
2.2699774109
2.84706979308
3.48387074845
4.20268967192
4.97960905267
5.78797819056
6.63193411798
7.50150115869
8.37113345462
9.19621440419
9.95485798327
10.648482939
11.2695140619
11.8049587324
12.2151837043
12.4853778471
12.6253256828
12.6253256747
12.4853778594
12.2151837089
11.8049587472
11.2695140748
10.6484829626
9.95485800374
9.19621444483
8.37113350646
7.50150118509
6.63193415252
5.78797822453
4.97960908599
4.20268970398
3.48387077797
2.84706981908
2.28463344328
1.79409547057
1.3928506792
1.06610935448
0.792572642324
0.579226614254
0.420194105507
0.302606304155
0.215228919631
0.152151207588
0.106836284237
0.0738694627425
0.0530093217439
0.0399136273855
0.0324634774715
0.0291333208694
0.0291333208048
0.0324634772661
0.0399136270086
0.0530093211179
0.0738694617405
0.106836282674
0.1521512053
0.215228915977
0.302606298028
0.420194098659
0.579226605454
0.792572631289
1.06610934018
1.39285066099
1.79409544818
2.28463341889
2.82934245618
3.44316661282
4.12565682902
4.85813567795
5.61620666515
6.40519948301
7.22057622961
8.02456959344
8.78443684271
9.48302360499
10.1158212232
10.6835315289
11.168446738
11.5405424367
11.7807356111
11.88751634
11.8875163342
11.7807356215
11.5405424415
11.1684467513
10.6835315413
10.1158212443
9.48302362437
8.78443688129
8.02456964149
7.22057625445
6.40519951506
5.61620669733
4.85813570962
4.12565685966
3.44316664122
2.82934248115
2.29181055334
1.82447688122
1.42593956259
1.10215390829
0.828924583238
0.609825633413
0.447322151633
0.324208769906
0.232567440446
0.165340658396
0.117732861971
0.0819295713507
0.0584199209636
0.0438936255995
0.0354567980801
0.0317459726864
0.0317459726085
0.0354567978393
0.0438936251664
0.058419920258
0.0819295702421
0.117732860282
0.165340655948
0.232567436486
0.32420876334
0.447322144606
0.609825624588
0.828924572295
1.10215389426
1.42593954505
1.82447685956
2.29181052926
2.81240341345
3.40387620794
4.05606772502
4.74878548064
5.46503523754
6.20666412143
6.96756508499
7.71379334912
8.41657265865
9.06268757189
9.64682186731
10.1670278558
10.606988142
10.9431427861
11.1573131601
11.2477646042
11.2477645996
11.1573131693
10.9431427909
10.6069881541
10.1670278676
9.64682188644
9.0626875902
8.41657269515
7.71379339405
6.96756510861
6.20666415118
5.46503526799
4.74878551093
4.05606775434
3.40387623503
2.81240343727
2.29698023764
1.85048582952
1.45836016941
1.13462315652
0.863269390391
0.640812689608
0.473218959911
0.345284707977
0.249492575572
0.178705777473
0.128130966641
0.0905892409358
0.0641478041929
0.0480197759314
0.0386024340237
0.0344661473336
0.034466147244
0.0386024337506
0.0480197754424
0.064147803408
0.090589239718
0.128130964829
0.178705774833
0.249492571304
0.345284701066
0.473218952765
0.640812680785
0.863269379526
1.13462314295
1.45836015228
1.85048580803
2.29698021452
2.79715313959
3.3667215391
3.99131454912
4.64853332123
5.32814535174
6.02681981172
6.73638612323
7.42948606919
8.08120860585
8.67997328121
9.22108108842
9.69829655831
10.0987533816
10.402657657
10.594527594
10.67844522
10.6784452164
10.5945276022
10.4026576618
10.0987533927
9.6982965695
9.22108110598
8.67997329866
8.08120863986
7.42948611149
6.73638614579
6.02681983974
5.32814538056
4.64853335017
3.99131457733
3.36672156484
2.79715316183
2.30116943881
1.87217054972
1.48931141126
1.16475679389
0.89573461445
0.672154018919
0.498669594018
0.366254191649
0.266294704906
0.19210859536
0.138064005865
0.0991646313109
0.0702466109174
0.0523353462493
0.042002551489
0.0373625898986
0.037362589799
0.0420025511837
0.052335345704
0.0702466100519
0.0991646299858
0.138064003933
0.19210859249
0.26629470036
0.366254184464
0.498669586815
0.672154010078
0.895734603815
1.16475678058
1.48931139409
1.87217052802
2.30116941548
2.78367169031
3.33124204246
3.9292189777
4.55515688831
5.20116412754
5.86015541239
6.5207632009
7.16563178051
7.77084882822
8.32603711359
8.82784275274
9.26551800081
9.63037971721
9.90516429927
10.0778518553
10.1608482339
10.1608482311
10.0778518626
9.90516430396
9.63037972736
9.26551801144
8.827842769
8.32603713034
7.77084885998
7.16563182042
6.52076322261
5.860155439
5.20116415492
4.555156916
3.92921900474
3.33124206683
2.78367171748
2.30520919839
1.88996529722
1.5188820499
1.19438613175
0.926630446448
0.703163953599
0.523953935736
0.387530092824
0.283164634065
0.205622742114
0.148419487059
0.107632323661
0.0766855927532
0.0568245482505
0.0455999356327
0.0404255069739
0.0404255068658
0.0455999352973
0.0568245476511
0.0766855918054
0.107632322235
0.148419484993
0.205622738994
0.283164629297
0.387530085451
0.523953928492
0.703163944757
0.926630435943
1.19438611867
1.51888203404
1.88996527746
2.30520917352
2.77141236519
3.29733751414
3.86934383767
4.46709577281
5.08102769457
5.70189129113
6.31790323203
6.91745834168
7.47978453261
7.99435096147
8.45816777192
8.85947984574
9.19162587748
9.44011320128
9.59817089787
9.67995755164
9.67995754942
9.59817090443
9.44011320585
9.19162588689
8.85947985585
8.45816778705
7.99435097748
7.47978456225
6.91745837952
6.31790325287
5.70189131688
5.08102772066
4.46709579928
3.8693438636
3.29733753824
2.77141238662
2.30908859388
1.90521423389
1.54681402612
1.22444551219
0.95712580906
0.733972231719
0.549888709862
0.408907865894
0.300454325184
0.219374816596
0.159299338255
0.116076022577
0.0837271240625
0.0617487732455
0.049417441475
0.0436835119024
0.0436835117861
0.0494174411086
0.0617487725908
0.0837271230318
0.116076021051
0.159299336027
0.219374813227
0.300454320237
0.408907858313
0.549888702576
0.733972222903
0.957125798703
1.22444549981
1.54681401065
1.90521421378
2.3090885694
2.76060418136
3.2652953959
3.81225096977
4.382869193
4.9659683906
5.55052897835
6.12532889008
6.68202204525
7.20380892996
7.68003242716
8.10765773424
8.47530042054
8.77675098122
9.00187843265
9.14760967676
9.22689932486
9.22689932318
9.14760968275
9.0018784371
8.77675098998
8.47530043016
8.10765774839
7.68003244248
7.20380895782
6.68202208122
6.12532891011
5.55052900286
4.96596841553
4.38286921834
3.81225099469
3.26529541919
2.7606042031
2.31252225446
1.91933259145
1.57222970886
1.25482319777
0.98712085571
0.764272355549
0.576773820994
0.430551573641
0.318216268668
0.233527681098
0.170542627562
0.124544205242
0.0910475825846
0.0671285342543
0.0535445621506
0.0472444542471
0.0472444541213
0.0535445617529
0.0671285335427
0.0910475814687
0.124544203613
0.170542625141
0.233527677491
0.318216263558
0.430551565915
0.576773813703
0.764272346787
0.987120845642
1.25482318572
1.57222969341
1.91933257193
2.3125222319
2.75099626295
3.23438958051
3.75657652834
4.30150400425
4.85473541657
5.40441817639
5.940280343
6.45642854253
6.9396763165
7.38009726637
7.77256660133
8.10856441329
8.38147834771
8.58538497149
8.72096443569
8.79522875115
8.79522874997
8.72096444125
8.58538497586
8.38147835592
8.10856442245
7.77256661461
7.38009728097
6.93967634275
6.45642857677
5.94028036218
5.40441819953
4.85473544038
4.30150402853
3.75657655229
3.23438960273
2.75099628494
2.31602095629
1.93264508062
1.59535141519
1.28515947725
1.01728509839
0.793785847091
0.604142398599
0.452733524485
0.336674764291
0.248220946115
0.182171122837
0.133362000131
0.0985533726618
0.0729575822417
0.0579345396879
0.0511043630587
0.0511043629218
0.05793453926
0.0729575814712
0.0985533714617
0.133361998395
0.182171120211
0.248220942285
0.33667475904
0.45273351662
0.60414239134
0.793785838429
1.01728508854
1.28515946523
1.59535140023
1.93264506227
2.31602093503
2.74132337143
3.20489807121
3.70285382745
4.22195302393
4.74601329849
5.26188515867
5.76149782955
6.23933980261
6.68558879033
7.09116860799
7.45016720901
7.75606728138
8.00240198986
8.18697008853
8.3129432409
8.38110078996
8.38110078927
8.31294324615
8.18697009287
8.00240199761
7.75606729012
7.45016722151
7.09116862184
6.68558881521
6.23933983531
5.76149784789
5.26188518084
4.74601332118
4.22195304718
3.70285385044
3.20489809268
2.74132339305
2.31953797608
1.94589557748
1.61612477301
1.31557304084
1.04818396226
0.823233358379
0.632024397629
0.475632636103
0.355811687672
0.263454467746
0.19426643279
0.142834779159
0.106219791414
0.0793239156609
0.0627271196718
0.0552875500567
0.055287549908
0.0627271192118
0.0793239148301
0.106219790136
0.142834777296
0.194266429935
0.26345446369
0.355811682314
0.475632628193
0.632024390532
0.823233349807
1.04818395251
1.31557302892
1.61612475859
1.94589556046
2.31953795483
2.73172220041
3.17636728109
3.65072445624
4.14353700646
4.63892839201
5.12288157146
5.58738553011
6.02863890203
6.43952391323
6.81156121234
7.13870077143
7.41546806624
7.63729358657
7.80450183114
7.92016176516
7.98150698885
7.98150698856
7.92016177018
7.80450183551
7.63729359393
7.4154680746
7.13870078321
6.81156122553
6.43952393701
6.02863893323
5.58738554751
5.12288159265
4.63892841364
4.14353702869
3.6507244783
3.1763673017
2.73172222498
2.32291110314
1.95878217233
1.63566748104
1.34531657403
1.07948137729
0.852749571159
0.66048204951
0.499817423593
0.375451433717
0.279350516027
0.206864935146
0.152971010807
0.114189334559
0.0862434974628
0.0680168506475
0.0598324421611
0.0598324419999
0.0680168501534
0.0862434965708
0.114189333197
0.152971008783
0.206864932061
0.279350511791
0.375451428299
0.499817415604
0.660482042382
0.852749562698
1.07948136762
1.34531656236
1.63566746741
1.95878215717
2.3229110867
2.72207934851
3.14868921043
3.59988995821
4.06636101893
4.53328655852
4.98613124243
5.41691786344
5.82362165905
6.20031902964
6.53960808368
6.83630545974
7.08505989871
7.28429055722
7.43523637363
7.54020321644
7.59456590289
7.594565903
7.54020322131
7.43523637806
7.28429056427
7.08505990673
6.83630547086
6.53960809619
6.20031905256
5.82362168887
5.41691787989
4.98613126263
4.53328657917
4.0663610402
3.59988997943
3.14868923042
2.72207937018
2.32655857907
1.97127249428
1.65502243022
1.37374780026
1.11112311383
0.882318210678
0.689076747177
0.525217299786
0.395861597266
0.296087716571
0.22009067079
0.163561331598
0.122450675974
0.0935502554841
0.0738525644706
0.0648202486732
0.0648202485001
0.0738525639397
0.0935502545286
0.122450674525
0.163561329396
0.220090667478
0.296087712163
0.395861591815
0.525217291825
0.689076740105
0.882318202334
1.11112310426
1.37374778864
1.6550224165
1.97127247834
2.32655856111
2.71215338354
3.12095158857
3.54996624514
3.99014025877
4.42856571309
4.85113331734
5.2499715938
5.62287838153
5.96655235738
6.27444788119
6.54182757498
6.76415673847
6.94181810721
7.07773269274
7.17144408739
7.21891335315
7.21891335362
7.17144409215
7.07773269724
6.941818114
6.76415674616
6.5418275855
6.27444789312
5.96655237959
5.62287841007
5.24997160928
4.85113333657
4.42856573275
3.9901402791
3.54996626548
3.12095160781
2.71215340627
2.33034817573
1.98361906685
1.67455936218
1.40044279612
1.14302807596
0.912786842764
0.717769636343
0.551483504631
0.417079046351
0.313746136732
0.234117333917
0.174760408737
0.131238541493
0.101186920396
0.0802589353262
0.0702422724472
0.0702422722637
0.0802589347549
0.10118691938
0.131238539951
0.174760406337
0.234117330383
0.313746132199
0.417079040883
0.551483496567
0.717769629347
0.912786834513
1.14302806636
1.40044278459
1.67455934874
1.98361905222
2.33034815947
2.70214712892
3.09330496389
3.50038394923
3.91459527193
4.32418811124
4.71744071215
5.08517239817
5.42586267883
5.73784726248
6.01515547996
6.2541451322
6.45138642429
6.60895762274
6.7301997858
6.81245941963
6.85352923718
6.85352923799
6.81245942434
6.73019979039
6.60895762931
6.4513864317
6.25414514216
6.01515549118
5.73784728434
5.42586270616
5.08517241259
4.71744073044
4.32418812996
3.91459529136
3.50038396875
3.09330498251
2.70214715215
2.33379181154
1.99590567714
1.69430928988
1.42517484325
1.17492796516
0.944287132393
0.747048232252
0.578690400504
0.439462071603
0.332125430512
0.248837886262
0.186574564745
0.140804960471
0.109100182086
0.0873269261996
0.0762726335379
0.0762726333415
0.0873269255854
0.109100181014
0.14080495881
0.186574562127
0.248837882526
0.332125425873
0.439462066063
0.578690392456
0.747048225407
0.944287124193
1.17492795551
1.42517483178
1.69430927668
1.99590566341
2.33379179799
2.69152213842
3.06525509445
3.45072895837
3.83898419954
4.22056073673
4.58430966844
4.92234512094
5.23228348438
5.51289264216
5.76086393559
5.97276444918
6.14630055347
6.28512712087
6.39192691701
6.46274297359
6.49786967507
6.49786967622
6.46274297829
6.39192692169
6.28512712724
6.14630056061
5.97276445864
5.7608639461
5.51289266378
5.23228351071
4.92234513432
4.58430968577
4.22056075454
3.83898421809
3.45072897709
3.06525511255
2.69152215761
2.33667678134
2.00827487372
1.71378810358
1.44894370398
1.206037389
0.976423662141
0.776731860962
0.606720724275
0.46335700492
0.351309952424
0.264426282153
0.199059167766
0.151111574808
0.117485952241
0.0950058769812
0.0829339815853
0.0829339813754
0.0950058763245
0.117485951105
0.151111573004
0.199059164942
0.264426278242
0.351309947712
0.463356999368
0.606720716227
0.776731854171
0.976423653975
1.2060373793
1.44894369248
1.7137880901
2.00827485898
2.33667676545
2.68048463836
3.0367293266
3.40092413766
3.763999492
4.11708162949
4.45206849319
4.76106041285
5.04092964615
5.29181086726
5.51136993924
5.69707980612
5.84835433172
5.96945523849
6.06191919637
6.12186728209
6.15154995003
6.1515499515
6.12186728682
6.06191920112
5.96945524468
5.8483543386
5.69707981511
5.51136994918
5.2918108887
5.04092967159
4.76106042523
4.45206850959
4.1170816464
3.76399950969
3.40092415559
3.03672934408
2.68048465756
2.33935530904
2.02086766837
1.73305312473
1.47262709122
1.23594971821
1.00892943459
0.807035076291
0.635086583237
0.488386290364
0.371360882744
0.281018255251
0.212311739582
0.161939055806
0.12632631678
0.103238658857
0.0902598982926
0.090259898067
0.103238658158
0.126326315577
0.161939053842
0.212311736545
0.281018251176
0.371360877968
0.488386284831
0.635086575266
0.80703506963
1.00892942634
1.23594970851
1.47262707973
1.73305311158
2.02086765435
2.33935529427
2.66845341211
3.007515122
3.35049327271
3.68825772888
4.01374195975
4.32043204572
4.60064765184
4.85194613051
5.07391234119
5.26599953279
5.42697246045
5.55716609289
5.66141780288
5.73983452722
5.78964750183
5.8142384413
5.81423844307
5.78964750659
5.73983453204
5.66141780889
5.55716609951
5.42697246903
5.2659995421
5.07391236264
4.8519461551
4.60064766322
4.32043206119
4.01374197579
3.68825774572
3.3504932899
3.00751513872
2.66845343144
2.3414255523
2.03336284355
1.75194352837
1.49671099767
1.26438192978
1.04196495117
0.838531618424
0.664068131686
0.514477658434
0.392349257259
0.298567566071
0.226480703472
0.173503081139
0.135819796026
0.111939669093
0.09837025659
0.0983702563451
0.111939668357
0.135819794746
0.173503078993
0.226480700233
0.298567561867
0.392349252445
0.514477652943
0.664068123785
0.838531611736
1.04196494285
1.26438192012
1.49671098639
1.75194351576
2.03336283027
2.34142553948
2.65550663806
2.97695499915
3.29892040365
3.61215942676
3.91034794988
4.18863655051
4.44136762263
4.66457136214
4.85898765891
5.02479832737
5.1621846431
5.27266176119
5.36073531025
5.4255331013
5.46594989243
5.48598055532
5.48598055733
5.46594989722
5.42553310616
5.36073531606
5.27266176756
5.16218465128
5.02479833612
4.85898768052
4.66457138615
4.44136763312
4.18863656508
3.91034796504
3.61215944281
3.29892042004
2.97695501546
2.65550664944
2.34297614691
2.04550195208
1.77055609202
1.52034906742
1.29102773467
1.07499974005
0.871037445385
0.693775537153
0.541707428607
0.414821742216
0.316878759939
0.241381276077
0.185737164683
0.14620232923
0.121063554382
0.10738881611
0.107388815848
0.12106355361
0.146202327842
0.185737162348
0.241381272655
0.31687875563
0.414821737371
0.541707423171
0.69377552935
0.871037438669
1.07499973177
1.29102772516
1.52034905616
1.77055607879
2.04550193616
2.34297612821
2.64155237667
2.94522680673
3.24605162368
3.5350751473
3.80636156957
4.05727587437
4.28247188554
4.47897007142
4.64686876719
4.78753882938
4.90263363475
4.99463403847
5.06709571183
5.11896055877
5.15084020265
5.16659603309
5.16659603532
5.15084020746
5.11896056364
5.06709571745
4.99463404458
4.90263364258
4.78753883749
4.64686878883
4.47897009492
4.2824718952
4.05727588805
3.80636158389
3.5350751625
3.24605163933
2.9452268219
2.64155239382
2.34331593626
2.05715486043
1.78912709216
1.5435790191
1.31716799561
1.10714200302
0.904128683945
0.723921125702
0.569616351429
0.438762638372
0.336172659016
0.257318557301
0.198717570674
0.157342911671
0.13078585343
0.117170052375
0.117170052097
0.130785852618
0.157342910161
0.19871756815
0.257318553703
0.336172654631
0.438762633538
0.569616346092
0.723921117977
0.904128677234
1.10714199487
1.31716798625
1.54357900834
1.78912708014
2.05715484742
2.34331592168
2.62650361925
2.91195651183
3.19168056641
3.45676917927
3.70241419621
3.92561678073
4.12414115525
4.29473911019
4.43719499643
4.55414167956
4.64831376466
4.72298101283
4.78054349415
4.82029282168
4.84444052452
4.85631570657
4.856315709
4.84444052933
4.82029282652
4.78054349956
4.72298101868
4.64831377216
4.55414168718
4.43719501824
4.29473913333
4.1241411642
3.92561679359
3.7024142097
3.45676919368
3.19168058127
2.91195652645
2.62650363538
2.34294891242
2.06805881731
1.80746911133
1.56635994285
1.34370131912
1.13813651166
0.937649426054
0.754981120332
0.598073943922
0.463750142501
0.356285552377
0.274305366386
0.212587681242
0.169178225049
0.141119869678
0.1277446303
0.127744630013
0.141119868823
0.169178223395
0.212587678515
0.27430536265
0.356285547956
0.463750137688
0.598073938631
0.754981112668
0.937649419456
1.13813650362
1.34370130983
1.5663599321
1.80746909923
2.06805880447
2.34294889915
2.60962609936
2.87711554362
3.13545898322
3.37727456507
3.597162178
3.79391440333
3.96620765358
4.11171094578
4.23019321889
4.32468306564
4.39932569859
4.45768904258
4.50110720291
4.52984607881
4.54696561864
4.55531390579
4.55531390836
4.54696562339
4.52984608357
4.50110720808
4.45768904816
4.3993257058
4.32468307263
4.23019324088
4.11171096868
3.96620766189
3.79391441543
3.59716219068
3.37727457868
3.13545899739
2.87711555737
2.60962611692
2.3408849798
2.07806336307
1.8252472367
1.58874038278
1.37022434785
1.16759966481
0.971549714251
0.787272748616
0.627332662069
0.489934708914
0.377533434822
0.292052212669
0.227310647799
0.181773166973
0.152352695052
0.139027263642
0.139027263352
0.152352694137
0.181773165162
0.227310644898
0.292052208832
0.377533430365
0.48993470412
0.627332656794
0.787272741065
0.971549707661
1.16759965693
1.37022433885
1.58874037257
1.82524722554
2.07806335163
2.34088496926
2.5909455152
2.84013699789
3.07736840146
3.2954676131
3.49096699568
3.66198622911
3.80864034615
3.92998744769
4.02569690156
4.09917577231
4.15568916162
4.19882043424
4.22905858343
4.24784705811
4.25866994316
4.26386657968
4.26386658236
4.25866994782
4.24784706275
4.22905858836
4.19882043954
4.15568916855
4.09917577895
4.02569692374
3.92998747046
3.80864035394
3.6619862405
3.49096700759
3.29546762593
3.07736841482
2.84013701144
2.59094552164
2.33764748554
2.08678500391
1.84242691663
1.61086066549
1.39611787244
1.19548619859
1.0050263554
0.820303847083
0.657174956418
0.517187797835
0.400361991943
0.310669817169
0.242878687902
0.19514335733
0.164624338702
0.150994427923
0.150994427628
0.164624337706
0.195143355362
0.242878684845
0.310669813239
0.400361987461
0.517187793076
0.657174951166
0.820303839786
1.00502634896
1.19548619088
1.39611786358
1.61086065513
1.84242690431
2.08678498859
2.33764746799
2.57058257745
2.80115041271
3.01685182821
3.21218717262
3.38330396088
3.52948817763
3.6515371819
3.7494490386
3.82376691034
3.87784308889
3.91763036386
3.94643495673
3.96468219947
3.97467703947
3.97990601936
3.98230623886
3.98230624158
3.97990602387
3.97467704394
3.96468220413
3.94643496175
3.91763037053
3.87784309508
3.8237669327
3.74944906131
3.65153718929
3.52948818838
3.38330397206
3.21218718469
3.01685184087
2.80115042459
2.57058259189
2.33274012866
2.09399630965
1.85878433091
1.63267547095
1.42154719969
1.2234394986
1.03733363032
0.853606126704
0.687425156524
0.544945265213
0.42425176251
0.330190052781
0.2595319245
0.209266733804
0.177657242591
0.163587039095
0.163587038793
0.177657241503
0.20926673167
0.25953192129
0.3301900488
0.424251758052
0.544945260531
0.687425151357
0.853606119624
1.03733362407
1.22343949112
1.42154719134
1.63267546164
1.85878432061
2.09399629778
2.332740115
2.54797113412
2.75950395331
2.95421137895
3.1266816378
3.27430000372
3.39648039936
3.4945981438
3.57032076079
3.62456242334
3.66087247117
3.68536626325
3.70099172289
3.70849254305
3.71081535673
3.71111571229
3.71103739243
3.71103739513
3.71111571659
3.71081536099
3.70849254742
3.70099172762
3.68536626965
3.66087247702
3.62456244596
3.57032078355
3.49459815086
3.39648040954
3.27430001421
3.1266816491
2.95421139085
2.75950396435
2.54797114846
2.32604410168
2.09944996324
1.87402487097
1.65400124664
1.44645141629
1.25161273581
1.06839797585
0.887452257072
0.718784066699
0.573339515249
0.449250300634
0.350448313863
0.277156054362
0.224340567093
0.191635526042
0.17681524965
0.176815249327
0.191635524845
0.224340564794
0.277156051055
0.350448309862
0.449250296195
0.573339510609
0.718784061582
0.88745225023
1.06839796975
1.25161272859
1.44645140829
1.65400123784
1.87402486141
2.09944995235
2.32604408871
2.52287149136
2.71537816527
2.88882538637
3.03883025012
3.16347745748
3.26255657333
3.33820600911
3.39264124787
3.4282601891
3.44857852711
3.45920219307
3.4628105269
3.46098099624
3.45673466185
3.45276855711
3.45060398185
3.45060398447
3.45276856113
3.45673466585
3.4609810003
3.46281053134
3.4592021992
3.44857853253
3.42826021173
3.39264127077
3.33820601604
3.26255658304
3.16347746733
3.03883026068
2.88882539744
2.71537817525
2.52287150788
2.31668438731
2.1032347658
1.88785001236
1.67468774296
1.47080357576
1.27914046407
1.09757362495
0.921122847378
0.751170068843
0.602405090665
0.47542389548
0.372081132148
0.295430708663
0.240273875284
0.206474076159
0.190749953604
0.190749953238
0.206474074847
0.240273872841
0.295430705286
0.37208112813
0.475423891089
0.602405086106
0.751170063868
0.921122840891
1.09757361909
1.27914045716
1.4708035682
1.67468773481
1.88785000379
2.10323475668
2.31668437594
2.49503646644
2.6684332608
2.82061956795
2.94849735745
3.05076654223
3.12792478384
3.18218431989
3.21682186796
3.23520927471
3.2412699222
3.23948531983
3.23252501132
3.22276837119
3.21304170877
3.20551879634
3.2016040346
3.20160403704
3.20551880002
3.21304171245
3.22276837491
3.23252501544
3.2394853257
3.24126992728
3.23520929756
3.21682189098
3.1821843268
3.12792479318
3.05076655147
2.94849736729
2.82061957827
2.66843326983
2.49503648781
2.30529793497
2.10506021853
1.90006431373
1.69459062333
1.49483467641
1.30584812144
1.12579221913
0.953840080076
0.783895286406
0.631876701401
0.502341389093
0.395033458479
0.314603637067
0.25720292742
0.222080695336
0.205439378022
0.205439377596
0.222080693895
0.257202924859
0.314603633661
0.395033454493
0.502341384779
0.631876696935
0.783895281632
0.953840073865
1.12579221347
1.30584811487
1.49483466932
1.69459061597
1.90006430673
2.1050602129
2.30529792897
2.46437503993
2.61848294315
2.74981615296
2.85572940594
2.93631919194
2.99231232846
3.02671269254
3.0431239965
3.04601475462
3.03934565515
3.02673842314
3.01082528202
2.99457083783
2.98044687975
2.9700856322
2.96478478314
2.96478478531
2.97008563545
2.98044688305
2.99457084119
3.01082528581
3.02673842874
3.03934565991
3.04601477765
3.04312401975
3.02671269953
2.99231233753
2.93631920064
2.85572941509
2.74981616237
2.61848295239
2.46437505284
2.29125422176
2.10484324388
1.91040501727
1.71318421845
1.5181679133
1.332000355
1.15430468914
0.985217980639
0.816834278888
0.661812502907
0.529582690924
0.418737453356
0.33438890903
0.275199927617
0.238403228555
0.220640920304
0.220640919811
0.238403226993
0.275199924981
0.334388905615
0.418737449393
0.529582686717
0.661812498651
0.816834274423
0.985217974769
1.15430468377
1.33200034876
1.5181679066
1.71318421145
1.91040501019
2.10484323705
2.29125421589
2.43035050788
2.56524060366
2.6757161294
2.76039134391
2.81978061706
2.85609328057
2.87200896489
2.87202363174
2.86111499486
2.84351268228
2.82177824561
2.79859493407
2.77726049111
2.75978758605
2.74732243731
2.74097961475
2.74097961658
2.74732244007
2.75978758893
2.77726049407
2.79859493752
2.82177825091
2.84351268666
2.86111501804
2.8720236552
2.87200897208
2.85609328946
2.81978062529
2.76039135238
2.67571613787
2.56524061339
2.43035050423
2.27437199448
2.10196025739
1.91884769081
1.73031744789
1.54073499273
1.35736014905
1.18236203585
1.01508994916
0.849816014184
0.692779502638
0.557463136259
0.443582843421
0.35507637372
0.293895097345
0.255375071293
0.236540263139
0.236540262572
0.255375069604
0.293895094661
0.35507637033
0.443582839524
0.557463132242
0.692779498593
0.849816010025
1.01508994365
1.18236203078
1.35736014318
1.5407349863
1.73031744045
1.91884768137
2.10196024481
2.27437198208
2.39312906876
2.50825147955
2.59851147034
2.66230234461
2.70176064865
2.71930963139
2.71850726048
2.70396784403
2.68134735994
2.65450427323
2.62545750991
2.59679157861
2.57180916922
2.55202739389
2.53818863302
2.5311636187
2.53116362012
2.53818863523
2.5520273963
2.57180917176
2.59679158169
2.6254575149
2.65450427721
2.68134738331
2.70396786779
2.71850726788
2.71930964017
2.70176065647
2.66230235241
2.59851147815
2.50825148676
2.39312907266
2.25433920866
2.09648449389
1.9252190859
1.74581357391
1.56261391719
1.38214867554
1.20939614838
1.0430954045
0.882129658819
0.724213425939
0.585719120395
0.469347798536
0.377113819315
0.313273970122
0.27283485553
0.253220844303
0.253220843665
0.272834853746
0.313273967444
0.37711381597
0.469347794742
0.585719116558
0.724213422172
0.882129654908
1.04309539927
1.20939614367
1.38214867021
1.56261391142
1.74581356729
1.92521907772
2.09648448388
2.25433919732
2.35202485732
2.44819709379
2.51789268266
2.56172912202
2.58204808378
2.58245665371
2.56673267087
2.5398157028
2.50748712727
2.4733119293
2.43885561922
2.40654354504
2.37930138251
2.35822952346
2.34372014767
2.33637663305
2.33637663404
2.3437201493
2.35822952537
2.3793013846
2.40654354772
2.43885562386
2.4733119328
2.50748715071
2.53981572683
2.56673267854
2.58245666243
2.58204809125
2.56172912918
2.51789268985
2.44819709817
2.35202487741
2.23103996132
2.08834043112
1.92932616071
1.75923821302
1.58305299034
1.40624350811
1.23574039107
1.07109080844
0.913056864064
0.75562864645
0.614172953271
0.495570616421
0.39988258485
0.333302680875
0.290984189907
0.270509025397
0.270509024716
0.290984188055
0.333302678214
0.39988258155
0.495570612793
0.614172949736