/*--------------------------------*- C++ -*----------------------------------*\
| =========                 |                                                 |
| \\      /  F ield         | OpenFOAM: The Open Source CFD Toolbox           |
|  \\    /   O peration     | Version:  2.4.0                                 |
|   \\  /    A nd           | Web:      www.OpenFOAM.org                      |
|    \\/     M anipulation  |                                                 |
\*---------------------------------------------------------------------------*/
FoamFile
{
    version     2.0;
    format      ascii;
    class       volTensorField;
    location    "24.4480664";
    object      stressWall;
}
// * * * * * * * * * * * * * * * * * * * * * * * * * * * * * * * * * * * * * //

dimensions      [1 -1 -2 0 0 0 0];

internalField   uniform (0 0 0 0 0 0 0 0 0);

boundaryField
{
    DIRICHLETINLET
    {
        type            calculated;
        value           uniform (0 0 0 0 0 0 0 0 0);
    }
    OUTFLOW
    {
        type            calculated;
        value           uniform (0 0 0 0 0 0 0 0 0);
    }
    PERIODIC
    {
        type            empty;
    }
    WALL
    {
        type            calculated;
        value           nonuniform List<tensor> 
64
(
(8.24841007801 1.74169819765 0 1.74169819765 2.04024935492 0 0 0 0)
(10.3201033076 1.59796413063 0 1.59796413063 2.42091747318 0 0 0 0)
(12.0846737442 1.35417530913 0 1.35417530913 2.90609292155 0 0 0 0)
(13.5417756852 1.0782160191 0 1.0782160191 3.48688421951 0 0 0 0)
(14.9417091316 0.729841020483 0 0.729841020483 4.18491554095 0 0 0 0)
(16.0973304433 0.419277757537 0 0.419277757537 4.96123673823 0 0 0 0)
(17.2825108101 0.0172257195957 0 0.0172257195957 5.89111712957 0 0 0 0)
(18.2839233967 -0.334303516121 0 -0.334303516121 6.89642213646 0 0 0 0)
(19.1456389523 -0.647170922148 0 -0.647170922148 7.97491801869 0 0 0 0)
(19.8511791789 -0.885269433279 0 -0.885269433279 9.08428991352 0 0 0 0)
(20.424162615 -1.04574674575 0 -1.04574674575 10.2151155477 0 0 0 0)
(20.8314507588 -1.04197131058 0 -1.04197131058 11.1829204133 0 0 0 0)
(21.1497502437 -0.974419957175 0 -0.974419957175 12.1369598714 0 0 0 0)
(21.3573630831 -0.781249219786 0 -0.781249219786 12.8627385957 0 0 0 0)
(21.4790037362 -0.50750963883 0 -0.50750963883 13.3867875406 0 0 0 0)
(21.5389825697 -0.176568362472 0 -0.176568362472 13.6640589445 0 0 0 0)
(21.5389825415 0.176568354715 0 0.176568354715 13.664058967 0 0 0 0)
(21.4790037863 0.507509634034 0 0.507509634034 13.3867875403 0 0 0 0)
(21.3573630723 0.781249214136 0 0.781249214136 12.8627386166 0 0 0 0)
(21.1497502606 0.974419947773 0 0.974419947773 12.1369598897 0 0 0 0)
(20.8314507479 1.04197130157 0 1.04197130157 11.1829204435 0 0 0 0)
(20.4241626387 1.04574673295 0 1.04574673295 10.2151155838 0 0 0 0)
(19.8511791991 0.885269421128 0 0.885269421128 9.08428995663 0 0 0 0)
(19.1456389032 0.647170898083 0 0.647170898083 7.97491804247 0 0 0 0)
(18.2839234593 0.334303508224 0 0.334303508224 6.89642221596 0 0 0 0)
(17.2825108448 -0.017225732607 0 -0.017225732607 5.8911171708 0 0 0 0)
(16.0973304541 -0.419277771435 0 -0.419277771435 4.96123678101 0 0 0 0)
(14.9417091517 -0.729841039406 0 -0.729841039406 4.18491558163 0 0 0 0)
(13.5417757074 -1.07821603928 0 -1.07821603928 3.48688425838 0 0 0 0)
(12.0846737638 -1.35417532851 0 -1.35417532851 2.9060929575 0 0 0 0)
(10.3201033274 -1.59796414902 0 -1.59796414902 2.42091750575 0 0 0 0)
(8.24841010076 -1.74169821701 0 -1.74169821701 2.04024938648 0 0 0 0)
(6.07452261965 -1.71761427083 0 -1.71761427083 1.74383951206 0 0 0 0)
(4.15430029312 -1.52954326859 0 -1.52954326859 1.49586370323 0 0 0 0)
(2.72368177055 -1.25760198022 0 -1.25760198022 1.26968089244 0 0 0 0)
(1.80719635234 -0.999236391438 0 -0.999236391438 1.06311797016 0 0 0 0)
(1.13365630504 -0.742944453966 0 -0.742944453966 0.862952540539 0 0 0 0)
(0.736946871902 -0.554650006562 0 -0.554650006562 0.695724668761 0 0 0 0)
(0.418398667259 -0.365261847485 0 -0.365261847485 0.524139191551 0 0 0 0)
(0.23474254328 -0.233451028391 0 -0.233451028391 0.385159818706 0 0 0 0)
(0.123455398518 -0.137668373861 0 -0.137668373861 0.269005489768 0 0 0 0)
(0.0631926014378 -0.0763985221832 0 -0.0763985221832 0.18148328007 0 0 0 0)
(0.0305399766056 -0.036537383107 0 -0.036537383107 0.113741906927 0 0 0 0)
(0.0177024463083 -0.019048590409 0 -0.019048590409 0.0767339285395 0 0 0 0)
(0.0108619386398 -0.00733742730494 0 -0.00733742730494 0.0464983589076 0 0 0 0)
(0.00853536091756 -0.00270634153015 0 -0.00270634153015 0.030529121082 0 0 0 0)
(0.00778596487695 -0.000790370562669 0 -0.000790370562669 0.0213960409301 0 0 0 0)
(0.00766322568837 -8.8143427912e-05 0 -8.8143427912e-05 0.0162543472394 0 0 0 0)
(0.00766322568545 8.81434594361e-05 0 8.81434594361e-05 0.0162543472352 0 0 0 0)
(0.00778596487383 0.000790370588548 0 0.000790370588548 0.0213960408916 0 0 0 0)
(0.00853536089851 0.00270634151484 0 0.00270634151484 0.0305291208629 0 0 0 0)
(0.0108619385675 0.0073374271674 0 0.0073374271674 0.0464983582973 0 0 0 0)
(0.0177024460873 0.0190485899951 0 0.0190485899951 0.0767339272249 0 0 0 0)
(0.0305399761385 0.0365373823624 0 0.0365373823624 0.113741904837 0 0 0 0)
(0.0631926004208 0.0763985207974 0 0.0763985207974 0.181483276644 0 0 0 0)
(0.123455396334 0.13766837164 0 0.13766837164 0.269005484479 0 0 0 0)
(0.234742539813 0.233451025534 0 0.233451025534 0.385159811823 0 0 0 0)
(0.418398661964 0.365261842747 0 0.365261842747 0.524139184093 0 0 0 0)
(0.736946860063 0.554649998043 0 0.554649998043 0.695724657676 0 0 0 0)
(1.133656279 0.742944438372 0 0.742944438372 0.862952524491 0 0 0 0)
(1.80719631568 0.999236371626 0 0.999236371626 1.06311795009 0 0 0 0)
(2.72368173327 1.25760196003 0 1.25760196003 1.269680869 0 0 0 0)
(4.15430025755 1.5295432485 0 1.5295432485 1.49586367602 0 0 0 0)
(6.07452259049 1.71761425294 0 1.71761425294 1.74383948426 0 0 0 0)
)
;
    }
}


// ************************************************************************* //
