/*--------------------------------*- C++ -*----------------------------------*\
| =========                 |                                                 |
| \\      /  F ield         | OpenFOAM: The Open Source CFD Toolbox           |
|  \\    /   O peration     | Version:  2.4.0                                 |
|   \\  /    A nd           | Web:      www.OpenFOAM.org                      |
|    \\/     M anipulation  |                                                 |
\*---------------------------------------------------------------------------*/
FoamFile
{
    version     2.0;
    format      ascii;
    class       surfaceTensorField;
    location    "24.4480664";
    object      stressSurf;
}
// * * * * * * * * * * * * * * * * * * * * * * * * * * * * * * * * * * * * * //

dimensions      [1 -1 -2 0 0 0 0];

internalField   uniform (0 0 0 0 0 0 0 0 0);

boundaryField
{
    DIRICHLETINLET
    {
        type            calculated;
        value           uniform (0 0 0 0 0 0 0 0 0);
    }
    OUTFLOW
    {
        type            calculated;
        value           uniform (0 0 0 0 0 0 0 0 0);
    }
    PERIODIC
    {
        type            empty;
        value           nonuniform 0();
    }
    WALL
    {
        type            calculated;
        value           uniform (0 0 0 0 0 0 0 0 0);
    }
}


// ************************************************************************* //
