/*--------------------------------*- C++ -*----------------------------------*\
| =========                 |                                                 |
| \\      /  F ield         | OpenFOAM: The Open Source CFD Toolbox           |
|  \\    /   O peration     | Version:  2.4.0                                 |
|   \\  /    A nd           | Web:      www.OpenFOAM.org                      |
|    \\/     M anipulation  |                                                 |
\*---------------------------------------------------------------------------*/
FoamFile
{
    version     2.0;
    format      ascii;
    class       volVectorField;
    location    "24.4480664";
    object      U;
}
// * * * * * * * * * * * * * * * * * * * * * * * * * * * * * * * * * * * * * //

dimensions      [0 1 -1 0 0 0 0];

internalField   nonuniform List<vector> 
3840
(
(0.947765036434 -0.0553376268635 0)
(0.828964486695 -0.127984235071 0)
(0.714011721409 -0.181846556797 0)
(0.603998910262 -0.217791572968 0)
(0.502258805459 -0.238188161248 0)
(0.414788098721 -0.248555326836 0)
(0.338386109051 -0.249928031298 0)
(0.271078002292 -0.243966844611 0)
(0.209862395101 -0.228841286669 0)
(0.15667350256 -0.206882155145 0)
(0.112943067519 -0.182174751066 0)
(0.0775892866992 -0.153910643601 0)
(0.049279539997 -0.12178441028 0)
(0.0289898085211 -0.0873726934523 0)
(0.0164115295225 -0.0512926342678 0)
(0.00996029652052 -0.0164445719782 0)
(0.00996030952099 0.0164445715101 0)
(0.0164115207208 0.0512926345939 0)
(0.0289898123887 0.0873726921715 0)
(0.0492795361863 0.121784409924 0)
(0.0775892889618 0.153910642491 0)
(0.112943064673 0.182174750315 0)
(0.156673503605 0.206882154079 0)
(0.209862393746 0.228841287319 0)
(0.271077998173 0.2439668401 0)
(0.338386107723 0.249928030084 0)
(0.414788095829 0.248555325379 0)
(0.502258802341 0.238188159778 0)
(0.603998906461 0.217791571519 0)
(0.714011716629 0.181846555538 0)
(0.82896448081 0.127984234128 0)
(0.947765029218 0.0553376263728 0)
(1.03824242295 -0.0384144268322 0)
(1.09412959979 -0.145243495259 0)
(1.11702362998 -0.257962357386 0)
(1.11732519035 -0.376188673064 0)
(1.10771648546 -0.497456638202 0)
(1.08655701329 -0.620703015945 0)
(1.04855639751 -0.741366043275 0)
(0.993996676724 -0.856723554778 0)
(0.902488092523 -0.941213361107 0)
(0.782477767318 -0.993359697047 0)
(0.640097117541 -1.00014208628 0)
(0.482807389204 -0.935314279019 0)
(0.320614542808 -0.799072152738 0)
(0.17817018535 -0.599989362516 0)
(0.0759589843099 -0.373670188322 0)
(0.0251270613035 -0.129171234527 0)
(0.0251270609616 0.129171229368 0)
(0.0759589830579 0.373670181848 0)
(0.178170183037 0.599989354757 0)
(0.320614539802 0.799072145166 0)
(0.482807386252 0.935314273199 0)
(0.640097115422 1.00014208294 0)
(0.782477766435 0.993359695817 0)
(0.902488095843 0.941213364142 0)
(0.993996682097 0.856723559437 0)
(1.04855639664 0.741366043158 0)
(1.08655701156 0.620703015019 0)
(1.10771648513 0.497456637709 0)
(1.1173251937 0.37618867386 0)
(1.11702363652 0.257962358635 0)
(1.09412960821 0.145243496131 0)
(1.03824243082 0.0384144270494 0)
(1.06519086124 -0.0729252523524 0)
(0.934913107016 -0.151568198322 0)
(0.808072983058 -0.210950406217 0)
(0.691908530968 -0.25265158904 0)
(0.583321889988 -0.278326230109 0)
(0.484989777596 -0.291292644292 0)
(0.398786844487 -0.294266856662 0)
(0.321156139522 -0.287905072263 0)
(0.253182745935 -0.274248666942 0)
(0.192291775833 -0.251736326987 0)
(0.139691147098 -0.222912439657 0)
(0.096054497545 -0.188647222847 0)
(0.0610289839097 -0.150697336229 0)
(0.0351704691893 -0.110748870179 0)
(0.0181543424423 -0.0683597706461 0)
(0.009011161846 -0.0222979572208 0)
(0.00901116000857 0.0222979567585 0)
(0.0181543437733 0.0683597697573 0)
(0.0351704686155 0.110748869621 0)
(0.061028984115 0.150697335149 0)
(0.0960544967804 0.188647221825 0)
(0.139691146531 0.222912438383 0)
(0.192291775344 0.25173632585 0)
(0.253182745315 0.274248667002 0)
(0.321156135003 0.287905067844 0)
(0.39878684273 0.294266855171 0)
(0.484989774401 0.291292642663 0)
(0.583321886485 0.278326228549 0)
(0.691908526899 0.252651587454 0)
(0.808072978052 0.2109504048 0)
(0.934913100743 0.151568197243 0)
(1.06519085285 0.0729252515468 0)
(1.18237517485 -0.027305922791 0)
(1.26684181122 -0.146366737376 0)
(1.30041862002 -0.272542042365 0)
(1.29692110797 -0.403206251669 0)
(1.27767412642 -0.538467557772 0)
(1.25178656531 -0.675604274962 0)
(1.21579254805 -0.814663597586 0)
(1.1505573919 -0.938783882761 0)
(1.04990502369 -1.03588665145 0)
(0.923363039875 -1.09807391693 0)
(0.774750889737 -1.12407424475 0)
(0.602209115036 -1.07752199437 0)
(0.419407758044 -0.944786600957 0)
(0.250329038146 -0.732586638393 0)
(0.122003721921 -0.467836947713 0)
(0.0558680374905 -0.162267086433 0)
(0.0558680369365 0.162267079416 0)
(0.122003720044 0.467836939332 0)
(0.250329035189 0.732586629423 0)
(0.419407754733 0.944786593229 0)
(0.602209112046 1.07752198888 0)
(0.774750887761 1.12407424183 0)
(0.923363039461 1.09807391612 0)
(1.04990502733 1.03588665431 0)
(1.15055739642 0.938783886793 0)
(1.21579254581 0.814663596833 0)
(1.25178656398 0.675604273993 0)
(1.27767412811 0.538467557739 0)
(1.2969211134 0.40320625272 0)
(1.30041862807 0.272542043591 0)
(1.26684182045 0.146366737987 0)
(1.18237518267 0.0273059227354 0)
(1.1548870739 -0.0894898411701 0)
(1.0197501861 -0.17300058088 0)
(0.886365613264 -0.236830549028 0)
(0.765000700413 -0.282923372412 0)
(0.652509391207 -0.313167627418 0)
(0.547127435755 -0.329010697402 0)
(0.452264235078 -0.333127341289 0)
(0.366903403741 -0.327249789903 0)
(0.291127461832 -0.312502946802 0)
(0.224222087486 -0.289389839487 0)
(0.165003429328 -0.257585248491 0)
(0.114905575435 -0.218764695672 0)
(0.07445605801 -0.175823369429 0)
(0.0442214711715 -0.129784539353 0)
(0.0242315704222 -0.0806450957505 0)
(0.0136453223652 -0.02779295834 0)
(0.0136453235646 0.027792957741 0)
(0.0242315698551 0.0806450950432 0)
(0.0442214714543 0.129784538467 0)
(0.0744560573687 0.17582336836 0)
(0.114905575162 0.218764694372 0)
(0.165003428228 0.257585247154 0)
(0.22422208726 0.289389838055 0)
(0.291127460542 0.312502946797 0)
(0.366903399255 0.327249785527 0)
(0.452264233157 0.333127339505 0)
(0.547127432788 0.329010695426 0)
(0.65250938761 0.313167625702 0)
(0.765000696129 0.282923370723 0)
(0.886365608081 0.23683054748 0)
(1.01975017951 0.17300057967 0)
(1.15488706694 0.0894898405728 0)
(1.28937927478 -0.0143772179437 0)
(1.39358360006 -0.139159066712 0)
(1.44009845278 -0.274680277572 0)
(1.44022629541 -0.414417588606 0)
(1.41500907921 -0.559553160376 0)
(1.38479682417 -0.707825121973 0)
(1.34281399934 -0.8550259129 0)
(1.26791798942 -0.983434350106 0)
(1.16628580338 -1.09221273192 0)
(1.03216527164 -1.16254176896 0)
(0.878659599869 -1.19562982161 0)
(0.700817689754 -1.16775246866 0)
(0.50616798013 -1.04574414377 0)
(0.317810428734 -0.831255126402 0)
(0.169565096884 -0.539030097234 0)
(0.0895926145067 -0.183392117737 0)
(0.0895926137205 0.183392108674 0)
(0.169565094495 0.539030087464 0)
(0.31781042541 0.831255117014 0)
(0.506167976712 1.04574413628 0)
(0.700817686812 1.16775246358 0)
(0.878659598092 1.19562981904 0)
(1.03216527155 1.16254176842 0)
(1.16628580663 1.09221273428 0)
(1.26791799275 0.98343435342 0)
(1.34281399672 0.855025911895 0)
(1.38479682403 0.707825121206 0)
(1.41500908257 0.559553160591 0)
(1.44022630228 0.414417589683 0)
(1.44009846235 0.274680278691 0)
(1.39358361105 0.139159067134 0)
(1.28937928363 0.0143772172016 0)
(1.23113394782 -0.105643173026 0)
(1.09001127918 -0.192843157358 0)
(0.954017080977 -0.260668038957 0)
(0.828224674211 -0.310245881333 0)
(0.712548835434 -0.344085479343 0)
(0.602331363551 -0.36267876171 0)
(0.500422352949 -0.36800926407 0)
(0.408708374999 -0.362722792202 0)
(0.326189040279 -0.346926781628 0)
(0.253404754281 -0.322254323362 0)
(0.188805167533 -0.287939862104 0)
(0.133494855836 -0.24564144355 0)
(0.0884764898934 -0.198094669108 0)
(0.0544541331686 -0.145886730733 0)
(0.0319241270554 -0.0901825428444 0)
(0.0204616929957 -0.0314146460189 0)
(0.0204616936231 0.0314146453237 0)
(0.0319241269099 0.0901825419531 0)
(0.0544541332698 0.145886729769 0)
(0.0884764893814 0.198094667878 0)
(0.133494855387 0.245641442117 0)
(0.188805166454 0.287939860568 0)
(0.253404753968 0.322254321675 0)
(0.326189038586 0.346926781378 0)
(0.408708370482 0.36272278786 0)
(0.500422350885 0.368009262042 0)
(0.602331361064 0.362678759292 0)
(0.7125488319 0.344085477429 0)
(0.828224669811 0.310245879544 0)
(0.954017075694 0.260668037305 0)
(1.09001127275 0.192843156083 0)
(1.23113393886 0.10564317187 0)
(1.37173837475 -0.000868806195865 0)
(1.48828281222 -0.12774168436 0)
(1.5497505294 -0.269635528006 0)
(1.5572945807 -0.416253799504 0)
(1.53099320556 -0.568255601784 0)
(1.49565876542 -0.724712289373 0)
(1.44175369391 -0.87375004451 0)
(1.3630957305 -1.00871048549 0)
(1.26085954764 -1.12519965034 0)
(1.12525704492 -1.20608596795 0)
(0.964509123418 -1.24063240828 0)
(0.785602010368 -1.22686191258 0)
(0.584514261111 -1.12017340045 0)
(0.383266229316 -0.907866615511 0)
(0.218814966768 -0.595404618536 0)
(0.126343782679 -0.202578096891 0)
(0.126343781679 0.202578085845 0)
(0.218814964002 0.595404607701 0)
(0.383266225777 0.907866606033 0)
(0.584514257663 1.12017339329 0)
(0.785602007538 1.22686190793 0)
(0.964509121878 1.24063240604 0)
(1.12525704497 1.20608596753 0)
(1.26085955013 1.12519965208 0)
(1.36309573286 1.00871048818 0)
(1.44175369171 0.873750043507 0)
(1.49565876665 0.724712288815 0)
(1.53099321028 0.568255602111 0)
(1.55729458855 0.416253800488 0)
(1.54975053916 0.269635528908 0)
(1.48828282212 0.12774168456 0)
(1.37173838317 0.000868805431138 0)
(1.29883046028 -0.121936003755 0)
(1.15301547202 -0.212066853578 0)
(1.01467470961 -0.283210635698 0)
(0.885380350828 -0.335803386672 0)
(0.766499576912 -0.372468750435 0)
(0.652505618164 -0.393631146355 0)
(0.545180584557 -0.400337900347 0)
(0.447625434326 -0.395200523691 0)
(0.359580670238 -0.378794218838 0)
(0.281149474616 -0.352119273217 0)
(0.21175317707 -0.315560871524 0)
(0.151923005398 -0.27008253538 0)
(0.102863383043 -0.21822903077 0)
(0.0655203019465 -0.160542774249 0)
(0.0408554347209 -0.098783551385 0)
(0.02848697634 -0.0338241350891 0)
(0.0284869771055 0.0338241342967 0)
(0.0408554345525 0.0987835504157 0)
(0.0655203020688 0.160542773166 0)
(0.102863382478 0.218229029425 0)
(0.151923004913 0.270082533805 0)
(0.211753175927 0.315560869825 0)
(0.281149474276 0.352119271273 0)
(0.359580668148 0.378794218374 0)
(0.447625429779 0.39520051939 0)
(0.545180582449 0.400337898123 0)
(0.652505615235 0.393631143852 0)
(0.766499573416 0.372468748328 0)
(0.8853803464 0.335803384755 0)
(1.01467470426 0.283210633942 0)
(1.15301546522 0.212066852185 0)
(1.29883045467 0.121936002756 0)
(1.44161784872 0.013002905031 0)
(1.56438331694 -0.114517800462 0)
(1.64108252032 -0.260008582923 0)
(1.65982004401 -0.412879966029 0)
(1.63552124946 -0.570122457759 0)
(1.59335164768 -0.731947414829 0)
(1.52825320672 -0.882459594229 0)
(1.44678363673 -1.02306949078 0)
(1.34289660992 -1.14530279527 0)
(1.2079703258 -1.23497847884 0)
(1.04093453147 -1.27322299118 0)
(0.858224494543 -1.26544028324 0)
(0.654745922361 -1.17549389897 0)
(0.446014048449 -0.968388211877 0)
(0.267938141366 -0.64040362877 0)
(0.164612304284 -0.221607331395 0)
(0.164612303108 0.221607318507 0)
(0.267938138327 0.640403617051 0)
(0.446014044779 0.968388202445 0)
(0.654745918926 1.17549389217 0)
(0.858224491858 1.26544027898 0)
(1.04093453016 1.27322298924 0)
(1.20797032567 1.23497847836 0)
(1.34289661138 1.14530279633 0)
(1.44678363851 1.02306949299 0)
(1.52825320537 0.882459593309 0)
(1.59335165019 0.731947414433 0)
(1.63552125516 0.57012245808 0)
(1.6598200526 0.412879966897 0)
(1.64108253131 0.260008583648 0)
(1.56438332905 0.114517800421 0)
(1.44161785878 -0.0130029061097 0)
(1.3605681983 -0.138612646876 0)
(1.21217595055 -0.231230139683 0)
(1.07082410578 -0.305128330752 0)
(0.939002984776 -0.360530416737 0)
(0.816564346219 -0.399436498322 0)
(0.699180242734 -0.422667735894 0)
(0.587544171149 -0.430729791269 0)
(0.484903375537 -0.425865036402 0)
(0.391894752227 -0.408841390077 0)
(0.308333566627 -0.380258107446 0)
(0.234349533657 -0.341302793009 0)
(0.170483886365 -0.292897736582 0)
(0.117771190449 -0.236892417643 0)
(0.0775487309134 -0.174201928571 0)
(0.0509207620441 -0.106646648182 0)
(0.0376215409484 -0.0356953698694 0)
(0.0376215417051 0.0356953689868 0)
(0.0509207619516 0.106646647116 0)
(0.0775487310256 0.174201927387 0)
(0.11777118988 0.236892416181 0)
(0.170483885829 0.292897734881 0)
(0.234349532474 0.341302791153 0)
(0.308333566233 0.380258105242 0)
(0.391894749756 0.408841389407 0)
(0.484903370935 0.42586503211 0)
(0.587544169008 0.430729788869 0)
(0.699180239301 0.422667733354 0)
(0.816564342605 0.399436496087 0)
(0.939002980336 0.360530414688 0)
(1.07082410041 0.305128328884 0)
(1.21217594413 0.231230138278 0)
(1.36056818717 0.138612645219 0)
(1.50360039223 0.027607400621 0)
(1.62908481548 -0.100500631035 0)
(1.71836500668 -0.247227074475 0)
(1.75003897742 -0.405316807549 0)
(1.7305483656 -0.566942573146 0)
(1.6801339939 -0.731241393399 0)
(1.60778070194 -0.885347497807 0)
(1.52278566075 -1.03003189502 0)
(1.41711630283 -1.15707377403 0)
(1.2822703552 -1.25329933443 0)
(1.11343272389 -1.2993801474 0)
(0.926105613712 -1.29227640082 0)
(0.721414906619 -1.21698636967 0)
(0.506763672252 -1.01673297819 0)
(0.317077758603 -0.677101140055 0)
(0.204797207257 -0.238197437235 0)
(0.204797205943 0.238197422674 0)
(0.317077755374 0.677101127576 0)
(0.506763668501 1.01673296882 0)
(0.721414903238 1.21698636322 0)
(0.926105611218 1.29227639693 0)
(1.11343272275 1.29938014571 0)
(1.28227035462 1.25329933379 0)
(1.41711630333 1.15707377448 0)
(1.5227856624 1.03003189688 0)
(1.60778070161 0.885347496974 0)
(1.68013399756 0.731241393082 0)
(1.73054837224 0.566942573373 0)
(1.75003898667 0.405316808216 0)
(1.71836501714 0.247227074968 0)
(1.62908482482 0.100500630719 0)
(1.50360039987 -0.0276074018277 0)
(1.41770629263 -0.155803557442 0)
(1.26833240671 -0.25065901754 0)
(1.12402011619 -0.326818371032 0)
(0.9899097038 -0.384689595615 0)
(0.864014336746 -0.425514364003 0)
(0.743479314013 -0.450478157953 0)
(0.628372348301 -0.459931567029 0)
(0.521113697937 -0.455139565005 0)
(0.423497476477 -0.437371375263 0)
(0.335341942295 -0.40709694296 0)
(0.257030039889 -0.365669147271 0)
(0.189433963768 -0.31438156544 0)
(0.133404577449 -0.254412252323 0)
(0.0905826608729 -0.187000978166 0)
(0.06217082114 -0.114069805335 0)
(0.0479479324911 -0.0379258967812 0)
(0.0479479332806 0.0379258958151 0)
(0.0621708211153 0.114069804187 0)
(0.0905826609952 0.187000976882 0)
(0.133404576873 0.254412250753 0)
(0.189433963193 0.314381563614 0)
(0.257030038668 0.365669145269 0)
(0.335341941868 0.407096940519 0)
(0.423497473676 0.437371374366 0)
(0.521113693268 0.455139560691 0)
(0.628372346134 0.459931564479 0)
(0.743479310406 0.450478155277 0)
(0.86401433298 0.425514361661 0)
(0.98990969931 0.384689593437 0)
(1.1240201108 0.326818369041 0)
(1.26833239973 0.250659016037 0)
(1.41770628522 0.155803556247 0)
(1.56023543303 0.0429434285468 0)
(1.6867793868 -0.0859041685524 0)
(1.78565957957 -0.232622942194 0)
(1.83102112697 -0.394487248896 0)
(1.81784889044 -0.559931981463 0)
(1.76095923427 -0.725295811348 0)
(1.68321702509 -0.883677834114 0)
(1.59325931387 -1.03127805188 0)
(1.48562162494 -1.16281783657 0)
(1.3507166676 -1.2644182658 0)
(1.18199893201 -1.3189571511 0)
(0.989436508297 -1.31317718426 0)
(0.784544851167 -1.24801217402 0)
(0.565709429969 -1.05582146946 0)
(0.36717772193 -0.709683114596 0)
(0.24731249152 -0.251870739657 0)
(0.247312490105 0.251870723594 0)
(0.367177718562 0.709683101453 0)
(0.565709426171 1.05582146013 0)
(0.784544847868 1.24801216791 0)
(0.989436506011 1.31317718073 0)
(1.18199893089 1.31895714957 0)
(1.35071666636 1.26441826494 0)
(1.48562162465 1.16281783646 0)
(1.59325931578 1.0312780535 0)
(1.68321702579 0.883677833328 0)
(1.76095923892 0.725295811037 0)
(1.81784889799 0.559931981589 0)
(1.8310211368 0.394487249472 0)
(1.78565959017 0.232622942764 0)
(1.68677939707 0.085904168176 0)
(1.56023544118 -0.0429434309566 0)
(1.47119736054 -0.173563406542 0)
(1.32185450288 -0.270377852298 0)
(1.17549214272 -0.348584709714 0)
(1.0387778986 -0.408523789452 0)
(0.909640565838 -0.451073705434 0)
(0.786292120917 -0.477577461906 0)
(0.668006972703 -0.488040732517 0)
(0.556752415057 -0.483428961252 0)
(0.454807296407 -0.464797067567 0)
(0.362441859829 -0.432907982183 0)
(0.28010852792 -0.38918343513 0)
(0.208999228252 -0.334923466695 0)
(0.149940901421 -0.271137470319 0)
(0.10475397833 -0.19920714459 0)
(0.0747238627759 -0.121230296289 0)
(0.059466740889 -0.0403152460666 0)
(0.059466741709 0.04031524502 0)
(0.0747238628308 0.121230295055 0)
(0.104753978473 0.199207143209 0)
(0.149940900845 0.271137468639 0)
(0.208999227643 0.334923464751 0)
(0.280108526659 0.389183432985 0)
(0.36244185939 0.432907979547 0)
(0.454807293277 0.464797066475 0)
(0.556752410291 0.483428956835 0)
(0.668006970473 0.488040729831 0)
(0.786292117295 0.477577459045 0)
(0.909640561969 0.451073702965 0)
(1.03877789405 0.408523787153 0)
(1.17549213733 0.34858470762 0)
(1.32185449568 0.270377850699 0)
(1.47119735804 0.173563404802 0)
(1.61303324996 0.0590898613911 0)
(1.74041641969 -0.0707079784701 0)
(1.84529987327 -0.216767893763 0)
(1.90404700126 -0.380756082545 0)
(1.89864808756 -0.549727309656 0)
(1.83834182631 -0.715945842956 0)
(1.75624250775 -0.878440985127 0)
(1.66024589346 -1.02819434182 0)
(1.55020049705 -1.16359267523 0)
(1.41486013741 -1.26986431238 0)
(1.2472808962 -1.33185326541 0)
(1.05060489062 -1.33056103386 0)
(0.843279668136 -1.26970555256 0)
(0.621847403263 -1.08579343326 0)
(0.417706386689 -0.738534559593 0)
(0.291222945476 -0.262943664293 0)
(0.291222943982 0.26294364693 0)
(0.417706383212 0.73853454584 0)
(0.621847399447 1.08579342394 0)
(0.843279664949 1.26970554677 0)
(1.05060488853 1.33056103064 0)
(1.2472808949 1.33185326394 0)
(1.41486013542 1.26986431124 0)
(1.55020049629 1.16359267464 0)
(1.66024589592 1.02819434334 0)
(1.75624250946 0.878440984409 0)
(1.83834183179 0.715945842608 0)
(1.89864809571 0.549727309654 0)
(1.90404701143 0.380756082958 0)
(1.84529988461 0.216767894151 0)
(1.74041643203 0.0707079781397 0)
(1.61303326037 -0.0590898636305 0)
(1.52195664425 -0.191909549519 0)
(1.37320848985 -0.290553916466 0)
(1.22587904831 -0.37062208483 0)
(1.08622468004 -0.43227302498 0)
(0.954082554421 -0.476321339718 0)
(0.828029084162 -0.504055043378 0)
(0.706907625882 -0.515414537717 0)
(0.592043047297 -0.510828008805 0)
(0.486089346472 -0.491307661672 0)
(0.389845577453 -0.457837722663 0)
(0.303797042746 -0.411786899366 0)
(0.229411295674 -0.354548298631 0)
(0.167584813668 -0.287038997712 0)
(0.120257533333 -0.210766272029 0)
(0.0886463638701 -0.128217814253 0)
(0.0724646728775 -0.0428612938963 0)
(0.0724646737498 0.042861292772 0)
(0.0886463640255 0.128217812929 0)
(0.120257533506 0.210766270551 0)
(0.167584813094 0.287038995929 0)
(0.229411295032 0.35454829657 0)
(0.303797041448 0.411786897086 0)
(0.389845576999 0.457837719818 0)
(0.486089343037 0.491307660422 0)
(0.592043042412 0.510828004229 0)
(0.706907623604 0.515414534902 0)
(0.828029080943 0.504055040172 0)
(0.954082550527 0.476321337089 0)
(1.08622467543 0.432273022561 0)
(1.22587904288 0.370622082635 0)
(1.37320848319 0.290553914727 0)
(1.52195663706 0.191909547326 0)
(1.66312766186 0.076073471575 0)
(1.79124433768 -0.0546920920761 0)
(1.89925027547 -0.19995972539 0)
(1.9694223337 -0.364405113076 0)
(1.97254257513 -0.53606952907 0)
(1.91333643479 -0.70380788971 0)
(1.82692660087 -0.869481282333 0)
(1.72551912218 -1.02213439304 0)
(1.61222525773 -1.16034620748 0)
(1.4759672083 -1.27085643556 0)
(1.30942416824 -1.33908444918 0)
(1.11155050776 -1.34578198619 0)
(0.900316413738 -1.2844362849 0)
(0.677651472726 -1.10869689289 0)
(0.468830980974 -0.763440657314 0)
(0.336450818963 -0.272221095738 0)
(0.336450817411 0.272221077279 0)
(0.46883097741 0.763440642979 0)
(0.67765146891 1.10869688354 0)
(0.900316410706 1.28443627941 0)
(1.11155050581 1.34578198325 0)
(1.30942416659 1.3390844477 0)
(1.47596720556 1.27085643412 0)
(1.61222525671 1.16034620645 0)
(1.72551912527 1.02213439448 0)
(1.82692660341 0.86948128152 0)
(1.91333644101 0.70380788929 0)
(1.97254258378 0.536069528882 0)
(1.96942234418 0.364405113142 0)
(1.8992502867 0.19995972554 0)
(1.79124434867 0.0546920916787 0)
(1.66312767069 -0.0760734732511 0)
(1.57053551331 -0.211028850642 0)
(1.42285744342 -0.311293495138 0)
(1.27503657025 -0.39305056061 0)
(1.13273380254 -0.456104079451 0)
(0.997827050914 -0.501492545072 0)
(0.86920536589 -0.530276083476 0)
(0.745404411803 -0.542273031301 0)
(0.627310841576 -0.537604712572 0)
(0.517642403334 -0.517099295388 0)
(0.417775627529 -0.481975531629 0)
(0.328320666845 -0.433687326522 0)
(0.250860650531 -0.373462470595 0)
(0.186535962125 -0.302305290522 0)
(0.137213605486 -0.221928783922 0)
(0.104139074063 -0.135078636094 0)
(0.087077172867 -0.0453473529119 0)
(0.087077173802 0.0453473517011 0)
(0.104139074321 0.135078634686 0)
(0.137213605698 0.221928782347 0)
(0.186535961557 0.302305288636 0)
(0.250860649858 0.373462468419 0)
(0.32832066551 0.433687324112 0)
(0.417775627069 0.481975528591 0)
(0.517642399592 0.517099294029 0)
(0.627310836565 0.537604707786 0)
(0.745404409496 0.542273028356 0)
(0.86920536264 0.530276080105 0)
(0.997827047067 0.501492542255 0)
(1.13273379791 0.456104076895 0)
(1.27503656479 0.393050558292 0)
(1.42285743674 0.311293493291 0)
(1.57053550644 0.211028848164 0)
(1.71123788034 0.0939245786681 0)
(1.83964455556 -0.037698449574 0)
(1.94923468142 -0.182474084029 0)
(2.02818420868 -0.345990850313 0)
(2.04061948889 -0.519645162341 0)
(1.98538885444 -0.689449449032 0)
(1.89561600844 -0.857013773952 0)
(1.78990553019 -1.01320831286 0)
(1.67246830069 -1.15367857377 0)
(1.53497190367 -1.26819431465 0)
(1.36899083299 -1.34215692894 0)
(1.17205142499 -1.35780725254 0)
(0.956168891469 -1.29562411433 0)
(0.732405379535 -1.12558285815 0)
(0.520743454391 -0.784037475019 0)
(0.383998255322 -0.280879980136 0)
(0.383998253721 0.280879960726 0)
(0.520743450758 0.784037460131 0)
(0.732405375735 1.12558284876 0)
(0.956168888582 1.29562410908 0)
(1.17205142307 1.35780724979 0)
(1.36899083081 1.34215692742 0)
(1.53497190021 1.26819431288 0)
(1.67246829973 1.15367857246 0)
(1.78990553398 1.0132083143 0)
(1.8956160118 0.857013773046 0)
(1.98538886133 0.689449448476 0)
(2.04061949801 0.519645161872 0)
(2.02818421949 0.345990850149 0)
(1.94923469286 0.182474084084 0)
(1.83964456634 0.037698449166 0)
(1.71123788896 -0.0939245805414 0)
(1.6173973063 -0.230966961404 0)
(1.47100715653 -0.332565847859 0)
(1.3231042388 -0.415800195688 0)
(1.17868144017 -0.480167062235 0)
(1.0411593124 -0.526696484372 0)
(0.910012237647 -0.556259933839 0)
(0.783739859088 -0.568647442434 0)
(0.662718027557 -0.563734913596 0)
(0.54964791514 -0.542170329028 0)
(0.446435944813 -0.505506894678 0)
(0.353862822875 -0.45489440281 0)
(0.273584098858 -0.391721222834 0)
(0.206973198238 -0.317000453955 0)
(0.155825797143 -0.232696176071 0)
(0.121305370146 -0.141884271725 0)
(0.103563522627 -0.0477727487165 0)
(0.10356352363 0.0477727474169 0)
(0.121305370516 0.141884270229 0)
(0.1558257974 0.2326961744 0)
(0.206973197675 0.317000451972 0)
(0.273584098155 0.391721220547 0)
(0.353862821504 0.454894400276 0)
(0.446435944356 0.505506891448 0)
(0.549647911091 0.542170327584 0)
(0.662718022406 0.563734908543 0)
(0.783739856768 0.56864743935 0)
(0.910012234122 0.556259930398 0)
(1.04115930856 0.526696481386 0)
(1.17868143555 0.480167059524 0)
(1.32310423332 0.415800193237 0)
(1.47100715 0.332565845938 0)
(1.61739729927 0.230966958516 0)
(1.757841214 0.112754652644 0)
(1.88633318816 -0.0196333405505 0)
(1.99650001828 -0.164271279686 0)
(2.08119456385 -0.326031818726 0)
(2.10410245286 -0.500600615566 0)
(2.05600524651 -0.673239531035 0)
(1.96422245647 -0.841952636315 0)
(1.85434680298 -1.00173175746 0)
(1.73119005526 -1.14364322405 0)
(1.59241981411 -1.26213600036 0)
(1.42725875702 -1.3419423045 0)
(1.23125894749 -1.3651853573 0)
(1.01134959158 -1.30424498392 0)
(0.785829607275 -1.13751712314 0)
(0.571808608598 -0.798952909971 0)
(0.433244687714 -0.288942704905 0)
(0.433244686072 0.288942684717 0)
(0.571808604924 0.798952894589 0)
(0.785829603516 1.13751711372 0)
(1.01134958885 1.30424497887 0)
(1.23125894548 1.36518535466 0)
(1.42725875419 1.34194230283 0)
(1.59241981018 1.2621359983 0)
(1.73119005467 1.14364322256 0)
(1.85434680749 1.00173175881 0)
(1.96422246065 0.84195263536 0)
(2.05600525402 0.673239530308 0)
(2.1041024624 0.500600614844 0)
(2.08119457473 0.326031818362 0)
(1.99650002934 0.164271279616 0)
(1.88633319831 0.0196333402986 0)
(1.75784122268 -0.11275465465 0)
(1.66308387196 -0.251697333813 0)
(1.51790726372 -0.354482569534 0)
(1.37022414152 -0.439011866797 0)
(1.22428117661 -0.504532172874 0)
(1.08432564381 -0.551967292812 0)
(0.950743038376 -0.58204313362 0)
(0.822144761759 -0.594666290914 0)
(0.698486456895 -0.589373617201 0)
(0.582355366684 -0.566723161621 0)
(0.476057863751 -0.52836598811 0)
(0.380639778458 -0.475428667204 0)
(0.297788914443 -0.409312594242 0)
(0.229113577276 -0.331128148186 0)
(0.176293218779 -0.243036475283 0)
(0.140447771513 -0.148480640224 0)
(0.122095138204 -0.0500589738474 0)
(0.122095139284 0.0500589724552 0)
(0.140447772 0.148480638643 0)
(0.176293219085 0.24303647352 0)
(0.229113576718 0.331128146108 0)
(0.29778891371 0.409312591848 0)
(0.380639777049 0.475428664555 0)
(0.476057863299 0.528365984672 0)
(0.582355362322 0.566723160132 0)
(0.698486451592 0.589373611854 0)
(0.822144759429 0.59466628769 0)
(0.950743034918 0.582043129964 0)
(1.08432563993 0.551967289675 0)
(1.22428117199 0.504532170014 0)
(1.37022413607 0.439011864219 0)
(1.51790725707 0.354482567421 0)
(1.66308386899 0.251697330861 0)
(1.80313163558 0.132572913058 0)
(1.93146169443 -0.00039356861773 0)
(2.04239177224 -0.145255702836 0)
(2.12916746343 -0.304679356196 0)
(2.16245684628 -0.479042862935 0)
(2.12395872847 -0.654651137757 0)
(2.03269945929 -0.824591620998 0)
(1.91877851154 -0.987597526315 0)
(1.78979425086 -1.13120633749 0)
(1.64883743025 -1.25308908611 0)
(1.48432895628 -1.33840237055 0)
(1.28978712332 -1.36828975869 0)
(1.06680439273 -1.31119100631 0)
(0.83846656812 -1.14533452813 0)
(0.623784124377 -0.810454711056 0)
(0.483857912341 -0.296040646286 0)
(0.483857910675 0.296040625439 0)
(0.623784120675 0.810454695248 0)
(0.83846656443 1.14533451868 0)
(1.06680439013 1.3111910014 0)
(1.28978712105 1.36828975609 0)
(1.48432895278 1.33840236872 0)
(1.64883742607 1.2530890839 0)
(1.78979425076 1.13120633586 0)
(1.91877851681 0.987597527631 0)
(2.03269946426 0.824591620094 0)
(2.12395873647 0.654651136819 0)
(2.16245685607 0.479042861989 0)
(2.12916747443 0.304679355576 0)
(2.04239178377 0.145255702581 0)
(1.93146170649 0.000393568408678 0)
(1.80313164704 -0.132572914801 0)
(1.70792710938 -0.27332067464 0)
(1.56389095135 -0.377094365262 0)
(1.41648416374 -0.462703547516 0)
(1.26965596949 -0.529194546962 0)
(1.12755092371 -0.57733967051 0)
(0.991605253762 -0.607790265863 0)
(0.860807941049 -0.620322464778 0)
(0.734783323841 -0.614464359104 0)
(0.615920883586 -0.590685721662 0)
(0.506818859354 -0.55057245881 0)
(0.408834768015 -0.495314464245 0)
(0.323730206834 -0.426240623285 0)
(0.253183840269 -0.344724505622 0)
(0.198802114158 -0.253109614595 0)
(0.161819385917 -0.154796419886 0)
(0.142958514141 -0.0521963848361 0)
(0.14295851532 0.0521963833476 0)
(0.161819386535 0.154796418222 0)
(0.198802114513 0.253109612745 0)
(0.253183839713 0.344724503456 0)
(0.323730206071 0.42624062079 0)
(0.408834766569 0.495314461481 0)
(0.506818858925 0.550572455198 0)
(0.615920878891 0.590685720151 0)
(0.734783318375 0.614464353397 0)
(0.860807938721 0.620322461399 0)
(0.99160525033 0.607790262006 0)
(1.12755091983 0.577339667201 0)
(1.26965596487 0.529194543946 0)
(1.41648415826 0.462703544794 0)
(1.56389094556 0.377094363079 0)
(1.70792709727 0.27332067007 0)
(1.84740075557 0.153434754189 0)
(1.97547146324 0.0199912375438 0)
(2.08689304147 -0.125136444569 0)
(2.17351175114 -0.282281617509 0)
(2.21629820225 -0.455532233926 0)
(2.18906998685 -0.633665045333 0)
(2.10037049115 -0.804975975235 0)
(1.9826327575 -0.970301907672 0)
(1.84917519136 -1.11691981782 0)
(1.70529080149 -1.24170010821 0)
(1.54052965363 -1.33187755211 0)
(1.34700950117 -1.3671100499 0)
(1.12342497465 -1.31624745785 0)
(0.891069173368 -1.14962009672 0)
(0.676563200191 -0.818504533957 0)
(0.536138885115 -0.301850345333 0)
(0.536138883435 0.301850323922 0)
(0.67656319649 0.818504517826 0)
(0.891069169777 1.14962008724 0)
(1.1234249721 1.31624745299 0)
(1.34700949848 1.36711004729 0)
(1.54052964948 1.33187755011 0)
(1.70529079728 1.24170010584 0)
(1.84917519193 1.11691981605 0)
(1.98263276349 0.970301908869 0)
(2.10037049672 0.804975974032 0)
(2.18906999532 0.633665044247 0)
(2.21629821222 0.455532232708 0)
(2.17351176178 0.282281616517 0)
(2.08689305161 0.125136443881 0)
(1.97547147177 -0.0199912378824 0)
(1.8474007627 -0.153434754711 0)
(1.75218606495 -0.295904834582 0)
(1.60888805126 -0.400431663704 0)
(1.46204501147 -0.486893304256 0)
(1.31484341506 -0.554249826474 0)
(1.17097340736 -0.602910106995 0)
(1.03279174306 -0.633438319861 0)
(0.89992800569 -0.645626582748 0)
(0.771810690149 -0.639103066564 0)
(0.65053625958 -0.614064772884 0)
(0.538955934425 -0.572090880899 0)
(0.438705420996 -0.514501117488 0)
(0.35164485639 -0.442440602462 0)
(0.279428530603 -0.357772408569 0)
(0.223671397101 -0.262766463272 0)
(0.185713683338 -0.160821169698 0)
(0.166422584591 -0.054198490268 0)
(0.166422585879 0.0541984886817 0)
(0.185713684094 0.160821167953 0)
(0.223671397507 0.262766461341 0)
(0.279428530045 0.357772406323 0)
(0.351644855594 0.442440599874 0)
(0.438705419511 0.514501114616 0)
(0.538955934026 0.572090877098 0)
(0.650536254541 0.614064771394 0)
(0.771810684514 0.639103060466 0)
(0.899928003388 0.645626579195 0)
(1.03279173961 0.633438315806 0)
(1.17097340349 0.602910103506 0)