/*--------------------------------*- C++ -*----------------------------------*\
| =========                 |                                                 |
| \\      /  F ield         | OpenFOAM: The Open Source CFD Toolbox           |
|  \\    /   O peration     | Version:  2.4.0                                 |
|   \\  /    A nd           | Web:      www.OpenFOAM.org                      |
|    \\/     M anipulation  |                                                 |
\*---------------------------------------------------------------------------*/
FoamFile
{
    version     2.0;
    format      ascii;
    class       surfaceVectorField;
    location    "0.0002049282";
    object      qSurf;
}
// * * * * * * * * * * * * * * * * * * * * * * * * * * * * * * * * * * * * * //

dimensions      [1 0 -3 0 0 0 0];

internalField   nonuniform List<vector> 
87750
(
(258957.968854 -60873.6759815 -92011.9331415)
(274643.453984 -93518.3057188 -79985.4673558)
(282341.412054 -75567.0569645 -106547.854985)
(300733.905517 -70537.0922356 -117291.797118)
(309521.261171 -51961.3289365 -128280.806154)
(321903.571377 -39482.1022287 -135651.756954)
(327133.792489 -14908.2042501 -142309.498351)
(327504.466915 14863.4798164 -142566.002825)
(320752.586384 37694.7132847 -135523.771706)
(311119.121693 54179.6223902 -127775.519839)
(300251.404546 68282.3264939 -119613.235865)
(282405.798132 76410.4852689 -108647.699966)
(267074.675433 89817.1311273 -90485.6098096)
(258560.305693 89121.0230566 -72357.1589671)
(263990.083954 -73988.0214844 -79078.5204043)
(264152.877455 -72401.177051 -83368.1468395)
(232721.747187 -77242.7599029 -92542.0981326)
(261150.725413 -76337.8318935 -107310.574224)
(244198.445548 -90323.3042669 -103517.687791)
(282794.892601 -71136.9769314 -124688.807938)
(257564.183497 -82010.1613698 -116863.048608)
(291205.085474 -56494.8791699 -136701.596178)
(270758.139931 -71425.5856077 -125762.509658)
(304214.446621 -41773.3079443 -145163.058802)
(277181.917581 -52247.0678256 -135109.299071)
(307578.397816 -22842.6779004 -150782.130956)
(285918.04986 -35898.4147776 -141286.122913)
(308293.549649 -28.8185798445 -153764.727924)
(289656.141938 -13375.1825497 -144939.902059)
(308100.054726 22660.007145 -151241.366817)
(289661.377112 12879.3813908 -144992.782525)
(302927.033235 41200.4761754 -145112.852576)
(285232.04396 34739.8946229 -141187.771828)
(292769.624441 57133.5772454 -137469.735649)
(278079.094867 53765.7065933 -134822.044562)
(281227.426355 71129.7056195 -126575.839619)
(269374.819343 69061.0476486 -126619.604108)
(261938.851239 78156.3477429 -111498.603404)
(257378.112362 81765.6580943 -117802.565627)
(251505.619406 79476.2778711 -87775.8874855)
(243824.450463 92674.4111488 -105758.667337)
(262053.267424 69446.6531435 -69815.2911297)
(233403.37638 83538.249515 -86938.3082746)
(225990.257027 -71511.2783601 -75062.4797921)
(231920.814111 -91575.0184618 -109284.193527)
(197098.035605 -79579.5846271 -84306.0328051)
(233037.789071 -76227.9341109 -117481.4036)
(201566.440871 -69158.0607416 -103775.306099)
(245761.220077 -68005.3639915 -128115.527633)
(218735.359551 -63995.3676798 -104394.540713)
(252454.866962 -53148.9603868 -136342.405739)
(235773.247772 -59914.9584118 -112369.264347)
(261374.636559 -37956.3821239 -143147.459089)
(243200.162817 -45750.3554358 -121347.992464)
(266109.94724 -19898.0516269 -147266.605121)
(249897.424571 -29715.5531395 -127401.489359)
(267512.958064 -99.6448830387 -148795.339026)
(253221.884954 -10637.4564918 -130828.439996)
(265965.138529 19479.9212614 -147207.934981)
(253093.501155 10399.8747001 -130736.846691)
(260734.78028 37643.0318396 -143177.573144)
(249557.988141 29240.5998007 -127359.71767)
(253013.741398 53168.8250248 -136123.295282)
(243636.637449 46194.323202 -121142.791532)
(244378.16523 66957.8921854 -128319.885122)
(235140.892058 58847.6254212 -112921.737101)
(232562.782233 76417.4283458 -118294.566123)
(219815.191436 65203.4502295 -104286.543236)
(228200.243324 90849.9940212 -107668.689881)
(201665.374821 68528.4370836 -104006.894085)
(232930.761229 73202.9182125 -74488.4487442)
(197756.310886 80046.0599958 -82500.8353721)
(189766.731921 -67018.3527345 -69009.4051867)
(188764.922129 -82463.183303 -102875.7404)
(162705.133958 -74493.5959409 -73969.9917388)
(197248.608863 -58254.8972503 -97779.3941623)
(164415.561227 -62524.9206415 -93970.6009832)
(213174.403634 -55163.3097309 -107197.746093)
(177502.455951 -56582.5507419 -96748.1750322)
(222253.317445 -44741.9435127 -114945.317953)
(193862.535283 -50653.0353345 -105312.873825)
(229509.285742 -32016.9692165 -121759.703367)
(203245.573181 -41386.1660447 -113108.425293)
(234380.453056 -16578.5169809 -125455.012851)
(209631.633263 -26522.2427047 -119496.373263)
(236159.2647 -12.7718814264 -126823.099142)
(212390.715268 -9325.03332618 -123106.623296)
(234400.685651 16479.8841947 -125533.282)
(212278.327436 9162.12836494 -123409.84486)
(229537.134778 31885.3816224 -121750.459161)
(209593.21963 26534.4142546 -119984.4182)
(222703.018782 44780.8660574 -115036.976331)
(203599.707261 41787.5900471 -113322.05102)
(212759.5001 55245.8846305 -107663.256683)
(193882.703367 50314.1944614 -105681.122086)
(198241.234535 58174.6731114 -97405.6814577)
(178315.131462 56911.5127148 -96443.1960659)
(188260.545104 81549.5255171 -101897.983734)
(164463.622339 61901.977919 -94128.3936857)
(191401.527663 67157.4194567 -69115.2634631)
(162773.004088 74247.6551498 -73506.9061106)
(155307.018607 -60444.2251522 -61857.6695096)
(151628.048136 -72295.5875276 -89267.2337953)
(130214.197415 -66239.4426537 -64827.3930114)
(159737.365325 -52660.2282289 -86657.4896484)
(131132.695807 -56026.6080312 -83105.1559614)
(171559.251433 -50212.4860148 -98579.2244603)
(138486.365646 -50386.7431381 -86422.2632814)
(182758.026277 -39901.6578225 -105002.180667)
(150702.519083 -42507.5902397 -96221.9307401)
(189614.373721 -29143.6829987 -112011.161558)
(159627.17573 -35122.3555096 -103003.676837)
(194138.259445 -15022.9471132 -116507.307512)
(165380.876868 -23187.610644 -108874.208149)
(195305.338899 11.3486807109 -118337.928646)
(168011.362671 -7766.5413304 -112324.399642)
(194005.852697 14964.2678032 -116951.496415)
(167966.69715 7699.2182976 -112220.776232)
(189661.092747 29153.7649769 -112305.334353)
(165488.53778 23010.0032407 -108837.128073)
(183116.504619 39776.0525518 -105007.745182)
(160032.509193 35077.5204674 -102709.151496)
(171786.721413 49878.5148556 -98594.4228827)
(150855.423472 42087.9588664 -96219.0900247)
(160123.610429 52162.3884142 -86392.3856451)
(138517.874901 50357.0528423 -86366.4788685)
(151513.996696 71630.0190514 -88832.6039158)
(130877.06284 55353.5022351 -83066.1339095)
(155669.618731 60211.2575422 -61767.8359884)
(130091.181994 65992.0292996 -64634.4304368)
(123236.600661 -52815.8395116 -54391.0027416)
(117985.230211 -62525.3250217 -77635.7459116)
(101857.013156 -55842.6611971 -55645.0868509)
(125217.162353 -46248.0825718 -76343.9977596)
(102432.68018 -47508.9861211 -70679.1531326)
(130198.023978 -43844.8517052 -88483.3182194)
(106199.563313 -43506.9599888 -72995.8714957)
(139780.073617 -34393.3892337 -94362.3725154)
(112553.499278 -34686.9339924 -81581.2414929)
(145392.385538 -25255.0718722 -100977.336327)
(119941.884528 -27796.2355819 -87605.4417565)
(148707.589014 -13235.1866426 -105251.84783)
(124711.744006 -18760.5079776 -93026.0849225)
(150268.969755 -61.1889394307 -106459.427339)
(126844.868881 -6580.37582807 -95698.4742373)
(148839.637941 13142.0991444 -105077.796196)
(126819.087312 6355.33919389 -95770.5255151)
(145686.685132 25073.6430454 -100784.477057)
(124800.337569 18628.3644333 -93120.9215318)
(140222.643516 34167.8967661 -94016.8677196)
(120130.199861 27537.4542434 -87628.69897)
(130126.535371 43859.9342251 -88652.0582242)
(112713.704498 34789.6136099 -81772.6297998)
(125152.193736 45764.0205244 -76124.4527341)
(106297.25587 43454.2697811 -73041.8452357)
(117779.521078 62227.5639662 -77508.0492828)
(102363.725157 47415.3083045 -70664.4083808)
(123124.757802 52594.4199175 -54286.0113264)
(101793.323006 55822.2913711 -55520.2764739)
(95404.5303866 -44439.2093672 -46386.093598)
(90088.4779852 -50745.6412994 -64686.5833753)
(77628.1713198 -44266.5625739 -46427.1487871)
(96807.6916923 -37869.8553985 -63054.5758823)
(77409.7525986 -37735.7310916 -57354.3612011)
(96843.9431559 -36473.8200627 -74064.3686968)
(80006.6608893 -35335.4698765 -58889.2641438)
(102488.075093 -27440.6935376 -77789.4388178)
(82553.6441712 -27290.4882575 -65162.6895352)
(106255.971792 -20652.6071994 -84668.0183083)
(84322.354101 -22255.6760938 -70006.4552319)
(108331.585493 -10923.4761004 -88407.8039817)
(88501.6616067 -13152.0363522 -74725.5917788)
(108960.952432 -91.3583275564 -89561.9380507)
(91468.5383236 -4636.66997773 -77288.0244517)
(108318.556745 10689.2538252 -88545.5165831)
(91525.2158814 4467.23033161 -77229.2592926)
(106432.083042 20318.9184049 -84577.1803155)
(88539.4502823 12994.5473776 -74625.4716699)
(102534.989104 27398.0535237 -78072.6256626)
(84315.4724969 21885.8461422 -69989.6373149)
(96975.209158 36432.8704312 -74057.9727216)
(82452.6920794 26948.0967865 -65075.3286272)
(96842.9946484 37709.6093352 -63128.3302236)
(79831.9802337 35002.7956289 -58949.7098847)
(90126.6901396 50655.6362935 -64575.0255141)
(77198.6409524 37413.3578113 -57435.7040707)
(95630.5930527 44299.2870049 -46235.5228985)
(77526.5812233 44058.7168124 -46336.8393763)
(71866.5740112 -35896.8833549 -38782.7275741)
(66988.809248 -37647.3420565 -51104.3568864)
(57748.8302626 -32841.2687121 -38791.7967119)
(72138.1441708 -29101.8896378 -49322.5555755)
(57328.2864001 -28179.1340458 -43075.7560231)
(70425.0499418 -27572.8838438 -57590.0687481)
(59171.4560936 -24946.9737327 -42944.5891201)
(72367.565322 -19919.4005264 -59840.4189298)
(59667.1811923 -19583.5006694 -46468.3308299)
(71418.4896737 -15154.2019389 -65639.9495697)
(59879.1453144 -14685.9802231 -48675.1183563)
(73602.0876986 -7628.14364477 -68166.842372)
(61141.5823956 -7778.87270638 -50913.4390616)
(74667.7642525 -107.6238667 -69589.7263596)
(62147.3741413 -2182.40664963 -52089.472023)
(73681.9897778 7488.52307394 -68119.3255538)
(62131.2372166 2084.49236312 -52133.8182864)
(71500.7446621 14931.252463 -65461.340135)
(61196.3448743 7764.40078716 -50881.3136269)
(72323.1286422 19589.3832751 -59764.8165602)
(59905.621867 14530.8311452 -48706.6899781)
(70244.3870002 27391.713523 -57531.8024653)
(59778.6751117 19583.5194372 -46368.3792884)
(71862.9569491 28892.3635316 -49326.0750677)
(59328.597296 25047.5653212 -42894.2901675)
(66460.4829113 37409.4462626 -50973.0643619)
(57689.1604906 28093.6082515 -42279.1304044)
(71004.2864474 35549.9629031 -38458.44796)
(57137.016378 32173.8839863 -38009.1843328)
(50821.248068 -28693.0987878 -33791.0189375)
(49963.8040794 -25061.9023772 -36392.2224581)
(41554.8518872 -24036.2937753 -30712.7178912)
(51607.2279232 -21064.9861107 -35152.5312547)
(42376.1793598 -20502.9389488 -29834.6963687)
(51219.6939873 -17739.6230878 -37840.90537)
(42336.0011219 -17544.4244735 -29739.1999382)
(51298.0063017 -12970.5205657 -38807.9457556)
(41772.7255668 -13816.090607 -30891.2532585)
(50871.024036 -8337.09510325 -41137.1871577)
(41302.3104431 -9941.02281237 -31717.8849305)
(51639.0739779 -3248.83099962 -41444.0706323)
(41238.4670859 -5403.35077953 -32320.8933838)
(52748.0448205 -38.2445492232 -42069.2081161)
(41450.1898468 -1534.86728294 -32538.505646)
(51613.8453818 3192.57363257 -41561.8005868)
(41452.5339204 1495.32619316 -32544.645531)
(50943.5967198 8291.6283581 -41007.2245339)
(41257.6158332 5386.60903945 -32283.6928097)
(51284.3282 12899.0610812 -38792.7271209)
(41313.6523027 9879.6570662 -31686.0871499)
(51301.4410996 17733.5243367 -37623.7167619)
(41819.5213792 13820.7811627 -30852.2789229)
(51694.4946759 21083.0347657 -34946.5032489)
(42469.8356859 17571.0493937 -29617.2406773)
(50171.0248747 24399.1982646 -35205.7612884)
(42833.0313941 20499.8923723 -29595.1790105)
(49918.9371131 27851.3701429 -33095.0089735)
(41982.6125631 24030.5025954 -31028.2489577)
(33854.5093985 -23434.6510033 -27202.5030013)
(37053.3711637 -17483.2726414 -24624.8050487)
(30295.6352394 -17425.9722487 -22751.1179035)
(36604.3446589 -14825.7089372 -23807.1624645)
(30537.1976119 -14188.4567802 -20451.9757983)
(35667.9568446 -11944.4075547 -23931.0517778)
(29567.5989527 -11681.0035159 -19792.1621662)
(34849.4122636 -8935.66200946 -24209.6191575)
(28501.6425229 -9062.50575203 -19814.174395)
(34277.8389722 -5741.23856414 -24389.1453941)
(27656.3185935 -6329.30182778 -19874.1996474)
(34199.1582458 -2720.16606239 -24396.8504745)
(27172.5276571 -3551.85299247 -19848.2289122)
(34495.1572381 -15.9364420149 -24407.3565462)
(26999.6224837 -1073.57776681 -19766.8199278)
(34196.7279901 2696.18280044 -24393.4947286)
(27003.2238712 1077.09844117 -19769.5675387)
(34286.3743686 5718.47100602 -24358.6158833)
(27174.2167711 3539.55039819 -19832.5399922)
(34877.4072046 8888.14119968 -24163.0488311)
(27667.9455669 6281.63494165 -19860.8488262)
(35730.0797554 11939.0481043 -23904.1676656)
(28540.6134894 9029.48581848 -19783.9932004)
(36820.8211302 14776.44409 -23737.8646325)
(29662.1592867 11643.7724861 -19720.0480354)
(37461.4021634 17579.4493541 -24676.7208319)
(30662.587238 14120.0790784 -20371.1010181)
(34115.7740506 24122.9174997 -27905.8355568)
(30384.1092463 17350.9326213 -22759.5964836)
(24402.3402974 -17440.469787 -19612.857325)
(26292.2791443 -12253.952167 -16994.2706256)
(21685.287844 -12046.6314229 -15511.6826498)
(25491.2964407 -9762.92340329 -15660.6744819)
(21320.7540269 -9272.95811048 -13554.681869)
(24176.0529674 -7639.31537488 -15055.7334614)
(20254.6368319 -7301.60372069 -12551.6957132)
(23000.6690255 -5571.85075749 -14722.1230473)
(19091.6925183 -5465.58241089 -12052.1329511)
(22183.3452123 -3547.45308159 -14417.9185632)
(18150.5058272 -3707.99436271 -11690.0250164)
(21715.8022491 -1697.29452541 -14223.5513413)
(17517.8446747 -2069.29426742 -11380.3096416)
(21665.0226689 8.03603138983 -14176.3165575)
(17220.9571064 -633.961409447 -11189.5324084)
(21722.8493203 1706.93160269 -14225.1849956)
(17220.6438139 654.964364802 -11193.4414351)
(22190.3522834 3526.76337886 -14415.995604)
(17522.0247527 2061.74569007 -11381.3946481)
(23030.00395 5528.99427822 -14718.2070632)
(18160.2057585 3670.20084878 -11692.4956697)
(24220.5127419 7598.84507314 -15032.8224969)
(19134.5057825 5440.96631592 -12050.7222975)
(25574.2129024 9713.13175139 -15612.5792745)
(20307.4785684 7256.98562086 -12532.1220098)
(26346.1060069 12196.1841675 -16964.2872381)
(21391.0639722 9203.78317043 -13508.9323928)
(24594.893812 17283.1669514 -19548.6337833)
(21813.7101492 11976.0280039 -15449.0601365)
(17910.9506867 -11585.1247616 -12932.8519291)
(18210.8022462 -8017.9757581 -11111.6544147)
(15387.3589797 -7872.0043352 -10045.7326487)
(17394.0798288 -6033.32786301 -9782.53708031)
(14685.0268156 -5656.87437465 -8513.99611838)
(16137.5188355 -4494.67952834 -8958.70315252)
(13708.970862 -4220.86557108 -7478.93306285)
(15005.0312235 -3134.53930932 -8344.693084)
(12643.9944958 -2994.29896488 -6789.39051369)
(14163.7015099 -1922.80943857 -7870.95312318)
(11742.2893662 -1922.69336936 -6253.88056003)
(13656.5047139 -893.134024919 -7571.45266459)
(11135.9395194 -1032.48809507 -5868.14639316)
(13512.8055497 10.7512198405 -7482.51738656)
(10840.0568347 -310.793784072 -5653.48137599)
(13658.7370166 903.933189107 -7572.66889173)
(10833.9967006 324.186828362 -5649.37893438)
(14169.9116069 1907.71128427 -7873.96442251)
(11133.5629452 1032.58425815 -5862.05002288)
(15023.1919183 3096.09910252 -8352.23823927)
(11750.9213892 1898.44203194 -6257.83762021)
(16164.2665125 4465.51858539 -8948.00119082)
(12654.2409206 2965.5026498 -6781.72725242)
(17428.9434167 5985.35246374 -9761.55503652)
(13721.432334 4187.88821256 -7466.27956364)
(18290.3675607 7946.28191179 -11053.5601092)
(14702.4433106 5620.25459845 -8499.96514125)
(18063.3168938 11485.7867095 -12842.4934032)
(15438.8758003 7835.78417943 -10020.5870103)
(12899.1664754 -7399.25585288 -8224.00602647)
(12571.7818462 -4850.0059152 -6836.81679676)
(10809.2904813 -4862.98863631 -6197.43075591)
(11764.9772212 -3409.92961994 -5706.16204977)
(10027.4926438 -3176.16598736 -5023.62325985)
(10697.4083149 -2363.76923003 -4881.00619343)
(9184.39001357 -2165.90139277 -4080.81952077)
(9727.06679112 -1517.62480529 -4228.94356638)
(8282.68563623 -1392.74575184 -3385.19524217)
(8995.12806688 -863.563405251 -3735.4316162)
(7517.00765725 -794.160817622 -2853.40325222)
(8557.20067495 -372.864926286 -3434.5643095)
(6989.79823516 -386.125783278 -2472.3996335)
(8415.34360059 6.3427161662 -3330.45103869)
(6720.01924564 -104.067854711 -2270.9462059)
(8550.93385025 380.559350146 -3426.26861768)
(6716.56176383 117.98450396 -2269.44054939)
(8995.0527007 849.732843514 -3732.67468164)
(6981.38358937 376.047627892 -2465.439695)
(9733.34840395 1491.97679795 -4227.14800803)
(7516.32221251 774.871326094 -2848.39211388)
(10700.5839354 2333.18877705 -4870.54407721)
(8286.71629722 1358.40449128 -3381.80704758)
(11780.0384732 3380.24850412 -5696.54716743)
(9200.68332414 2128.90459114 -4081.21648113)
(12594.5350482 4814.04807264 -6827.39940953)
(10055.9943454 3132.37506054 -5024.91662995)
(12931.3203354 7371.89436976 -8214.03200611)
(10862.0202094 4809.1386044 -6190.51546262)
(9119.75249345 -4548.63604051 -5015.46305874)
(8655.23034321 -2697.61229676 -3948.76375649)
(7581.21333016 -2793.38534747 -3540.1056055)
(7905.54305352 -1665.64907637 -3010.11584546)
(6846.52359007 -1540.66329384 -2683.19146954)
(7017.01253501 -990.091467933 -2266.52902758)
(6067.49003689 -842.968254354 -1859.91932087)
(6226.30607141 -510.654583081 -1687.53904108)
(5288.05144047 -393.579672168 -1245.20835011)
(5635.25218158 -219.040555898 -1250.73819532)
(4649.96292473 -114.259645596 -782.438503016)
(5260.50714919 -64.6285570885 -976.289325638)
(4213.41757345 14.6855188825 -446.246084262)
(5132.33905943 6.30993135593 -881.019527667)
(3977.38859104 23.6940958929 -267.345956994)
(5252.52599106 65.4806488494 -971.605992751)
(3973.44348824 -15.7953179125 -264.146496735)
(5622.9889327 201.917624331 -1243.89503146)
(4205.43979396 -17.5754291849 -441.713871712)
(6225.18916644 486.528079264 -1685.42733193)
(4638.86721377 92.3987752801 -781.191509537)
(7023.12358932 952.43027208 -2270.51533456)
(5283.34711284 359.749855064 -1250.57919997)
(7918.48250192 1630.66954187 -3014.33746612)
(6061.12690121 807.754107696 -1873.36166961)
(8668.61260098 2650.46538059 -3941.76191489)
(6802.89633877 1498.65587275 -2685.92251189)
(9172.42508949 4479.23170939 -5001.66428277)
(7568.98949963 2719.30016478 -3539.22925977)
(6395.91203138 -2624.26901471 -2811.3192236)
(5972.02343722 -1328.20259423 -2012.08648671)
(5223.28573099 -1553.67184315 -1668.60985985)
(5196.53036805 -566.485769598 -1223.71552395)
(4476.4416493 -646.390953614 -1031.39750281)
(4433.60326564 -139.709925355 -592.982822565)
(3744.89953916 -117.140080647 -358.42258225)
(3765.83961019 84.3509648982 -99.0847436406)
(3075.17090637 119.718027066 168.21368866)
(3278.70295099 161.464951345 272.722914493)
(2519.3312805 193.977464644 564.370154082)
(2977.99809877 122.909400818 509.164789919)
(2176.53311441 192.019376132 846.194576737)
(2867.63291709 3.75709852619 595.425767456)
(1996.8844437 95.9182895985 1000.76627904)
(2971.18195528 -121.269157734 513.197272229)
(1994.6461839 -87.9849656206 1001.13947093)
(3269.20824217 -172.360721471 272.886037212)
(2167.03831865 -196.763219689 845.005599744)
(3756.30358182 -113.163038534 -101.878749109)
(2507.69038063 -213.934635297 562.582580435)
(4422.58166343 105.745937034 -604.165637097)
(3064.2913887 -154.015817082 165.115529589)
(5176.87695739 528.468058147 -1243.04061339)
(3724.14037513 78.8892352076 -378.683321082)
(5920.34969745 1265.96324727 -2033.67544539)
(4419.23558529 585.71538859 -1090.85031484)
(6413.33768722 2526.94876626 -2823.49462842)
(5049.04850834 1449.78026848 -1805.96237446)
(4390.73746098 -1333.72418212 -1291.85309229)
(3722.33792384 -507.222798678 -709.244437724)
(3412.65628113 -788.513207747 -752.69483231)
(3047.58399427 69.4472675449 -10.4158861553)
(2677.57090348 -94.4158234396 -149.857328412)
(2445.91186044 327.104161192 533.979080894)
(2001.01766682 333.500024805 494.329355371)
(1897.49105616 388.944453434 964.782405939)
(1388.78982693 478.306269216 997.523729132)
(1499.041313 324.916043429 1279.43751073)
(880.424261836 439.086109748 1362.77397499)
(1284.0812916 194.279245422 1483.10850649)
(558.04229383 302.901323519 1616.14308273)
(1206.17350804 4.87762391343 1552.52977764)
(354.045064284 77.0095756946 1721.5402749)
(1279.1772379 -193.15703469 1480.91724548)
(353.887392667 -72.5749456989 1717.80241452)
(1484.17363583 -336.009979455 1279.77397192)
(546.674274949 -306.949242745 1615.12796623)
(1884.36635808 -415.120201861 962.477671058)
(865.538375222 -454.200771864 1366.22423414)
(2423.38356472 -359.948745838 524.674019614)
(1372.98599418 -504.187880743 991.41023155)
(3011.39339928 -107.583093284 -36.5366102814)
(1963.56720104 -359.048050762 478.580241294)
(3648.49953743 459.045359477 -759.946469973)
(2607.76313268 61.8514309784 -173.800338444)
(4361.52155512 1200.82768343 -1370.88046527)
(3454.16080922 650.407939985 -803.120783468)
(3215.83004633 -956.111213241 -710.682354525)
(2285.08612874 -202.251376439 -191.52059075)
(2176.27396797 -276.608413321 -184.476447598)
(1594.87276568 339.361482609 417.230975548)
(1251.16708179 330.843484929 255.2280832)
(971.340280273 608.263749661 972.694699576)
(554.130558178 701.191211664 777.317889198)
(419.787924046 639.655252589 1422.8989)
(-60.8050292961 816.347015141 1261.15425852)
(28.4551010366 507.867275861 1732.91524179)
(-561.699538578 717.236698607 1593.32741112)
(-218.698281397 246.317368197 1889.87358097)
(-868.547661881 478.996931269 1747.26381872)
(-328.896712672 3.31007511947 1927.90911309)
(-1050.28476376 160.134021967 1769.6066175)
(-222.535324825 -246.104363729 1886.01893164)
(-1051.01322411 -152.250493567 1766.35777383)
(12.6865802798 -518.738134326 1734.59169762)
(-873.474001859 -485.001508229 1744.27687447)
(404.478878056 -661.914432083 1424.42622294)
(-568.906181475 -733.466578397 1591.71329101)
(941.046366305 -629.281203852 967.676799288)
(-83.562591443 -840.364266982 1260.3669527)
(1551.79602808 -360.822195184 407.82655454)
(511.275098225 -714.136179345 777.721856324)
(2282.22195593 138.254392073 -197.96908843)
(1240.69858048 -355.150255761 264.664806599)
(3504.46565084 697.272256878 -737.434135935)
(2329.40308895 146.594625556 -170.797249223)
(2523.38229358 -251.09949684 -91.9738494222)
(1196.20001299 232.756053895 325.462739141)
(1503.37107879 357.575288916 348.146747134)
(279.428932122 659.795692272 740.606555825)
(252.659774745 734.294467276 658.330681251)
(-409.480714737 882.791669227 1179.00676963)
(-594.139030498 1028.31447046 1026.99496393)
(-947.94920171 859.610701553 1515.75527553)
(-1221.0056347 1036.3445057 1300.32646429)
(-1268.83167557 629.938172873 1638.98428324)
(-1573.17609029 774.240736291 1327.80393149)
(-1453.23266697 310.061394542 1594.3287453)
(-1743.95260795 402.426573713 1107.85749257)
(-1527.48981091 5.10463350491 1551.27446242)
(-1846.76039406 114.904593692 870.67877326)
(-1455.16028736 -310.053937254 1592.76075555)
(-1847.05664187 -106.622525622 866.558908762)
(-1274.25762416 -641.127991232 1637.19561262)
(-1742.93097126 -408.006025617 1105.47715348)
(-956.711892207 -875.907216865 1512.76429433)
(-1576.19031986 -785.712669502 1327.06848351)
(-437.053253925 -900.338702869 1184.34393238)
(-1234.7466485 -1047.14230582 1300.08464312)
(265.366135636 -674.149425524 751.422524585)
(-616.682055275 -1035.63366119 1033.25541644)
(1269.79414835 -287.874020446 341.432296587)
(281.361191949 -759.499650356 661.208612186)
(2698.34294912 121.179690313 -73.9447615946)
(1611.81792528 -435.19193131 345.88898838)
(1945.63177445 447.858579362 344.745870609)
(495.665893943 755.86721834 704.033604266)
(929.159851838 947.597111274 612.349779549)
(-610.777061737 1031.56676848 1019.97627518)
(-441.418570607 1175.19307388 886.386780319)
(-1397.86848241 1080.28287671 1212.28749395)
(-1396.54536581 1223.31566799 1072.02571054)
(-1788.57240564 814.82285284 1114.83508689)
(-1875.11241019 868.931379733 910.294336421)
(-1923.20171356 384.232900515 682.402779765)
(-2026.86727749 254.842113831 274.515376484)
(-1998.22577369 92.2672056121 193.886335431)
(-2095.9759601 -151.230265138 -585.182579325)
(-2030.32562866 4.81751739654 -22.358417296)
(-2166.9189343 -110.21905356 -1191.91280279)
(-1995.85443378 -94.7718759171 188.877355516)
(-2165.78949984 113.725826926 -1192.14315982)
(-1921.98268934 -392.248166159 680.584033161)
(-2096.25356423 140.230010342 -586.414949109)
(-1789.23082234 -817.208624334 1107.6116973)
(-2030.52323091 -259.002839327 269.595706389)
(-1406.80597362 -1087.24562513 1211.91699449)
(-1884.24884774 -868.387938406 901.683993627)
(-605.009648281 -1038.40260195 1022.48371812)
(-1407.06512512 -1221.31924531 1068.27673298)
(550.631630472 -785.555587622 700.593384015)
(-417.170133863 -1187.10527734 879.656423766)
(2009.85508185 -500.804663377 341.799865908)
(976.867756779 -979.719572266 610.513022252)
(1373.56993353 987.188164833 481.501504384)
(-86.8679650577 1256.92957953 825.052128728)
(403.538184496 1424.54056994 646.98109193)
(-1230.89923833 1308.4251397 1036.905838)
(-958.839322903 1520.01193024 865.803044713)
(-1879.91586257 918.513758261 863.639293606)
(-1790.54209105 1125.44144946 812.733829539)
(-2097.44910935 147.377164041 135.008968078)
(-2106.54084071 143.670374677 141.45758719)
(-2191.34947218 -488.454069681 -969.518342238)
(-2240.21426996 -863.427769018 -1073.9798102)
(-2335.95365558 -502.044810064 -1954.95775284)
(-2562.63451062 -1140.10406422 -2348.97697309)
(-2422.03949495 -0.667399760491 -2330.86780676)
(-2937.08619482 -491.956259702 -3107.80290973)
(-2335.90615516 495.184658006 -1952.17425103)
(-2930.9948378 487.012311982 -3104.54446384)
(-2196.42292411 477.614350713 -968.376047463)
(-2560.66622066 1126.88877967 -2346.31039063)
(-2102.01375383 -143.919599747 130.466497828)
(-2244.01850108 861.466048041 -1072.84108255)
(-1885.96359472 -913.64388643 855.075645944)
(-2113.55322733 -138.949354511 134.932963152)
(-1229.66074484 -1304.17084601 1025.96359465)
(-1796.83049774 -1117.08333995 801.319857929)
(-64.6244639975 -1261.2029052 821.446287266)
(-951.725967969 -1510.87355433 857.152695147)
(1395.45883218 -999.021000354 493.136553339)
(427.139602337 -1424.89580355 649.92377992)
(873.71275833 1376.08517272 443.050994404)
(-564.339390076 1603.97175093 723.202565073)
(23.405486967 1745.66728732 509.436929072)
(-1579.82676889 1343.19720615 777.129166978)
(-1273.15445572 1651.13837559 634.427904442)
(-2035.61048807 281.908057094 258.230773286)
(-1932.71111667 698.124128192 388.381268536)
(-2243.14599731 -1067.47062806 -863.256918581)
(-2195.86538041 -962.737350455 -477.743730085)
(-2687.35877263 -1751.14364245 -2227.83736756)
(-2685.81471932 -2231.15095201 -1746.32528947)
(-3379.92318599 -1252.99641039 -3226.80884014)
(-3722.47828531 -2108.92941239 -2806.55119146)
(-3713.77214994 -5.86946993465 -3550.70267986)
(-4602.86838958 -805.161384423 -3320.46770962)
(-3374.53753968 1246.25362893 -3220.6813313)
(-4614.99195894 797.125940527 -3311.50759757)
(-2695.22785696 1745.48931201 -2225.90589191)
(-3729.39700434 2096.61020882 -2804.94305799)
(-2251.70916174 1064.9166931 -868.552525701)
(-2710.33265489 2214.93289975 -1746.32880493)
(-2045.09115563 -277.476034732 248.754215266)
(-2212.91614879 959.829531428 -486.977270747)
(-1583.47044746 -1326.93141077 765.220560205)
(-1937.960633 -683.558534808 376.05405298)
(-568.358624123 -1588.09086468 714.534597601)
(-1282.15495672 -1635.00010443 620.812143679)
(877.488084859 -1369.35016971 443.238608718)
(22.7490738478 -1734.37197186 496.94250606)
(554.787974443 1634.37089191 303.852829731)
(-868.822761867 1763.20555036 483.585602298)
(-231.448998276 1907.91432208 258.036550863)
(-1750.50285358 1121.12138908 407.667993223)
(-1460.28045164 1607.90423581 319.532931563)
(-2104.92503157 -576.120846645 -143.780952204)
(-2007.47296493 204.026137807 98.5808557779)
(-2561.45949069 -2347.9159283 -1129.66129778)
(-2343.44751004 -1945.43340269 -497.330318952)
(-3721.92949959 -2810.02331585 -2101.17945234)
(-3375.49979689 -3225.73639426 -1246.98701318)
(-5067.40354095 -1758.16767538 -2648.19842364)
(-5074.57135432 -2649.11389955 -1754.42659306)
(-5653.73290111 -2.5458080496 -2760.71210545)
(-6346.76490465 -927.548080856 -1889.79693294)
(-5081.30596571 1744.48140274 -2642.27928901)
(-6353.04067147 922.290305936 -1885.36309776)
(-3736.20598478 2799.7531615 -2097.08699558)
(-5084.77326167 2636.66105102 -1746.85975397)
(-2585.23742736 2333.86257573 -1127.09648542)
(-3397.46009151 3212.6841084 -1239.61098473)
(-2118.62761264 577.368324606 -152.081930796)
(-2358.18077551 1944.89376995 -500.591538366)
(-1756.51945539 -1107.95728491 397.393465516)
(-2009.46414982 -197.305840979 94.7846801375)
(-882.045651401 -1749.86399814 466.254233693)
(-1458.40934658 -1604.0887512 303.458811531)
(542.585800844 -1622.52695782 285.353688388)
(-222.365951512 -1901.81136352 233.461478832)
(336.070405037 1742.00571338 92.091236945)
(-1060.04997017 1784.96923168 169.482761614)
(-341.656880838 1949.78778253 19.4446267892)
(-1858.55888525 876.886065787 118.59758765)
(-1536.160761 1561.60602103 16.5063655885)
(-2172.8527163 -1186.51746303 -105.754434913)
(-2042.01756585 -18.9434720302 7.54549795999)
(-2929.84372445 -3108.31252855 -486.603831903)
(-2425.4373855 -2332.56664391 8.55919219215)
(-4611.76320187 -3317.91443303 -804.990951054)
(-3704.67760595 -3558.50251205 -0.0880960153233)
(-6348.9516362 -1886.93954928 -931.899352001)
(-5657.49508495 -2760.17437744 -6.82861348234)
(-6975.0030625 -0.126271758776 -855.01562747)
(-6973.22982468 -848.158509701 -9.41294537055)
(-6351.50914295 1881.02942601 -926.138793433)
(-6974.81147279 849.756861682 -4.06719697322)
(-4625.7746733 3308.66941425 -794.629972914)
(-5662.61533216 2758.35900246 2.69802533085)
(-2953.79710643 3097.11370772 -480.85308957)
(-3725.14023296 3547.35678454 3.59793319766)