/*--------------------------------*- C++ -*----------------------------------*\
| =========                 |                                                 |
| \\      /  F ield         | OpenFOAM: The Open Source CFD Toolbox           |
|  \\    /   O peration     | Version:  2.4.0                                 |
|   \\  /    A nd           | Web:      www.OpenFOAM.org                      |
|    \\/     M anipulation  |                                                 |
\*---------------------------------------------------------------------------*/
FoamFile
{
    version     2.0;
    format      ascii;
    class       volVectorField;
    location    "0.0002049282";
    object      U;
}
// * * * * * * * * * * * * * * * * * * * * * * * * * * * * * * * * * * * * * //

dimensions      [0 1 -1 0 0 0 0];

internalField   nonuniform List<vector> 
29700
(
(215.624380265 98.5102260178 107.894787949)
(231.295252271 78.9215651498 106.899992363)
(220.224195706 67.7092988538 115.568271977)
(214.509537793 57.3284520465 123.224277147)
(206.982178646 44.8587079247 130.895264903)
(201.627299959 30.8261332884 136.730114582)
(198.001388969 15.5150193499 140.876678851)
(196.723861591 0.265839905545 141.958320963)
(197.814446983 -15.2555645334 140.878960104)
(201.265588734 -30.8189687823 136.648796734)
(207.294218247 -44.9201288575 130.718040037)
(214.007858628 -57.2638229064 122.358983397)
(220.240089598 -67.1796256724 114.103082393)
(229.724462595 -76.5057150666 104.018620161)
(231.367614507 -88.4762048521 99.0665025857)
(228.319466935 95.7094078781 106.203242807)
(240.010113389 75.2911968708 99.5940604719)
(239.48727212 61.854505435 101.58901925)
(234.338515373 52.7335621286 109.211212583)
(227.759689317 42.1947342009 116.816488216)
(223.424759715 29.7063108758 123.239557311)
(220.457969606 15.4090845043 128.433178024)
(219.171474189 0.125805520716 130.307922142)
(220.279499403 -15.2635239358 128.243447301)
(223.071847039 -29.6511902254 123.115052787)
(227.934958797 -42.3185725932 116.631927516)
(233.563808724 -52.8133448544 108.683554736)
(239.002758347 -61.0814507472 100.357135825)
(240.230229695 -71.2233117144 96.3383844439)
(231.110271944 -91.6054345843 103.201742393)
(242.313630777 87.9685221045 97.9417365806)
(244.549999004 71.4860833224 91.0992167063)
(250.547421127 61.4740935664 94.1305018616)
(248.804050044 52.0014544517 103.003331746)
(243.913550131 41.9093880372 111.134302688)
(240.078596997 29.7801787129 117.408778533)
(237.503975343 15.6528704613 122.104831953)
(236.364053582 0.014655556688 123.890828286)
(237.299946966 -15.6362430784 122.136866769)
(239.857698142 -29.7703694117 117.385729883)
(243.892883975 -41.9462924218 110.966547696)
(248.129790219 -51.9398632329 102.730473922)
(250.244988509 -61.0138215938 94.2075808243)
(244.652851766 -69.7608309272 90.200963097)
(243.229209518 -87.0511443834 97.911392423)
(256.710947814 77.743531197 86.8244458689)
(252.671259105 64.1186117018 79.635781796)
(260.396059495 57.4896310777 83.4279855855)
(261.998227366 48.3409763796 91.8521364106)
(260.058690927 39.15220068 100.705078639)
(257.272163091 27.6975449489 107.305044213)
(255.208602184 14.5783395071 111.895558205)
(254.28376351 0.0485419969036 113.529374283)
(255.060009624 -14.495020373 111.68876049)
(257.087123488 -27.5696488752 107.039944343)
(259.979859516 -39.0862161288 100.605147773)
(261.613669751 -48.2388570535 91.891105128)
(260.579624482 -57.1511797808 83.8063383991)
(252.923343761 -63.6599471394 79.7832405533)
(257.159065852 -77.70140668 87.1800676065)
(270.880838651 65.458949977 73.3723278669)
(262.862190662 53.7972789399 65.8853938827)
(269.65625413 50.1378636506 69.9422393049)
(272.092558946 42.08299766 77.026013785)
(273.599281674 34.2048432314 85.4313302571)
(272.570703799 23.9877800329 91.6173675614)
(271.290913194 12.5378287816 95.5690078434)
(270.841626959 0.0474651127243 97.0126319962)
(271.197756894 -12.443992878 95.6414102179)
(272.515235948 -23.9099248672 91.7081517782)
(273.560446183 -34.2144365269 85.5562739082)
(271.890323007 -41.9424848698 77.0822436864)
(269.820885085 -50.0111088145 70.2888180797)
(262.92134151 -53.7942492884 66.1156719606)
(271.018477515 -65.5784621638 73.5808555591)
(284.702120806 51.0797891054 57.360159761)
(274.243205238 41.3927120237 50.0131033065)
(279.255443547 40.3593383966 54.2702699765)
(280.144358113 33.4011868524 58.8956654219)
(283.68598693 27.5512073357 66.0787563062)
(285.421280369 18.9335522098 70.794498455)
(285.382272945 9.75699557886 74.1826869002)
(285.24764342 0.0437681906779 75.4127267768)
(285.385155853 -9.6811459814 74.1278336049)
(285.511793456 -18.924546485 70.868420137)
(283.737046692 -27.4572354566 66.0704517829)
(280.130579849 -33.1794505692 58.8983578875)
(279.395950062 -40.1018199089 54.2778428048)
(274.502689979 -41.320359506 50.0190451208)
(285.038362496 -51.0408727493 57.3118975815)
(297.490480575 34.8347039122 38.9570931916)
(285.890515738 27.5058944695 31.9201246716)
(290.561293419 28.7157290582 36.1167065682)
(288.157765488 22.568024371 37.8298818546)
(291.764768877 19.2204358298 42.8736215337)
(293.713960345 12.2183389057 44.6772661567)
(297.346574028 6.35065746145 46.1899428332)
(298.57120201 0.0121281808073 46.6636739966)
(297.445405567 -6.31672394647 46.2555389584)
(293.867969177 -12.264532613 44.8109428567)
(291.715781385 -19.2538192486 42.9533880122)
(287.931274712 -22.6402002646 37.8534338361)
(290.236864122 -28.9274657734 36.1463712852)
(285.406527684 -27.7755117229 31.9483122134)
(297.157938166 -34.9790210476 39.0204592586)
(308.635554446 16.1811150356 15.9950632747)
(301.601227144 14.364598729 11.7095551774)
(306.55398069 15.436756167 15.323858179)
(304.859735127 12.3724551808 15.6880149467)
(307.271222304 10.7931831889 17.9364658476)
(308.002984946 7.34767849124 18.0139285128)
(311.331897013 4.2215694807 18.7009141948)
(313.403709816 0.036845344784 17.574907948)
(311.444437866 -4.12491354668 18.6510528533)
(308.340142893 -7.30437145531 18.1057691027)
(307.589815006 -10.7510000741 17.838572723)
(305.349566287 -12.2621471355 15.5656329676)
(307.557126032 -15.0630197282 14.9825676783)
(304.246275885 -13.4636278334 11.0468145452)
(310.783187018 -12.0591221935 11.7989762766)
(318.921572645 -8.93640761248 -12.7680221873)
(321.885649083 -4.28199073585 -11.5035697347)
(325.906945795 -3.32077994257 -10.9861741962)
(325.833919461 -3.52812877447 -12.5722569735)
(327.22938819 -2.79550045905 -14.0761456481)
(328.124838927 -1.8146509473 -15.9034509288)
(330.609951152 -0.477450436327 -17.216033402)
(332.366701296 0.0528014943047 -18.2110582487)
(330.721428568 0.582882885091 -17.2448575729)
(328.422809666 1.92806130244 -15.9103741985)
(327.609416322 2.94754833625 -14.1323514032)
(326.231810139 3.7726009275 -12.5561344478)
(326.566256092 3.74372025695 -10.7178306831)
(322.95066387 4.36185458643 -10.6203683383)
(317.673746934 8.77660489333 -12.2292732955)
(324.824402154 -29.9900974447 -35.5319086395)
(336.637000434 -24.8868716827 -36.171279443)
(341.243415949 -24.1122985454 -40.0074335117)
(342.650433367 -22.3974081066 -45.5888316297)
(343.996701914 -18.8592921708 -51.3370700945)
(345.398457824 -13.5515345913 -56.466033364)
(347.406199454 -6.93404040837 -60.2986973004)
(348.750728794 0.0449718908601 -61.8568234594)
(347.55232162 7.03839399915 -60.3099086245)
(345.659472622 13.6823614019 -56.465779082)
(344.278947913 19.0178278277 -51.3103607095)
(343.00520899 22.6319753211 -45.5263394746)
(341.852083109 24.4300247797 -39.8448909327)
(337.655657627 25.1308257097 -36.0512048924)
(325.417229753 30.1460101467 -35.6606167417)
(334.371991519 -51.9829427612 -59.2221985269)
(348.681247497 -47.2234977502 -63.8661243413)
(353.746255711 -45.8224266211 -71.6473038639)
(355.7134155 -42.1820426215 -81.3862830824)
(357.170201201 -35.5386407142 -91.3165722477)
(358.566864116 -25.8114957775 -99.9889852022)
(360.043207764 -13.5446471957 -106.18112984)
(360.909601801 0.0100468807501 -108.496658094)
(360.150588869 13.6058185132 -106.182285464)
(358.769491947 25.9210385557 -99.9833745093)
(357.374090167 35.7085217236 -91.2548806416)
(356.03135131 42.3810086197 -81.3267149219)
(354.181887334 46.045916214 -71.5411420833)
(349.271330279 47.3332590091 -63.7833031034)
(334.96818855 51.957911896 -59.1775013647)
(342.864575008 -74.5657741558 -83.4568881591)
(357.564975168 -69.8786532293 -92.3836624305)
(362.704673936 -67.4953159203 -103.967414765)
(364.585122012 -61.7336464982 -117.526256686)
(365.77208188 -51.8380942545 -131.174737245)
(366.729006934 -37.663175855 -143.045102017)
(367.537470507 -19.8335680555 -151.217683433)
(368.039418273 0.0079049098754 -154.234533238)
(367.661967446 19.8457108673 -151.272083527)
(366.906034477 37.7253020276 -143.052460635)
(366.013354107 51.9697610753 -131.199328837)
(364.952940728 61.9353957615 -117.574018064)
(363.037940538 67.6850740098 -103.947362273)
(357.99654927 70.1266577308 -92.4778963587)
(343.299624141 74.7135227841 -83.5540399449)
(348.410396236 -97.1428066019 -107.660537969)
(362.589446197 -91.889136492 -120.340757296)
(367.227629618 -88.0993424925 -135.079126276)
(368.440660478 -80.0724418987 -151.782388421)
(368.579327223 -66.8229937788 -168.287899797)
(368.39967879 -48.3153327317 -182.416734154)
(368.270937574 -25.4211304614 -192.064827987)
(368.337781711 -0.00196633235989 -195.553404324)
(368.38314032 25.4088017249 -192.114567075)
(368.546369876 48.3645672456 -182.463920187)
(368.746976365 66.9233844144 -168.324117717)
(368.698072602 80.2208921296 -151.802142839)
(367.491897252 88.2105486359 -135.022377523)
(362.977428041 91.9684357544 -120.330822465)
(348.894474153 97.1538668195 -107.661113437)
(350.329618877 -118.510941096 -130.404474725)
(363.366542206 -111.858631056 -145.421676005)
(366.858210167 -106.785422194 -162.971703446)
(366.403893191 -96.315534597 -181.980167253)
(364.529763297 -79.7108435059 -200.232268255)
(362.477771195 -57.2197618137 -215.443416811)
(360.924702556 -29.94233627 -225.64132926)
(360.401538926 0.00471202355656 -229.338268251)
(360.991967508 29.9268214022 -225.679359804)
(362.558584308 57.2509230142 -215.452395499)
(364.631468769 79.8049501633 -200.270112696)
(366.509240927 96.4049622424 -182.028129303)
(366.952360308 106.90366488 -163.117417292)
(363.74792058 112.201678193 -145.833245485)
(351.080203069 118.519936707 -130.583632768)
(347.381045193 -138.575570507 -150.229645765)
(357.686656742 -131.258864768 -167.522404027)
(360.423764955 -123.429516808 -186.826681327)
(357.363740691 -110.09279056 -206.678988933)
(352.583993142 -90.3919570118 -225.301833427)
(347.989256028 -64.4588311856 -240.308192136)
(344.827467652 -33.4440820091 -250.229303851)
(343.666053947 -0.00817526186551 -253.676575364)
(344.875516205 33.4351184144 -250.234155007)
(348.061167338 64.4921046322 -240.341546951)
(352.6715064 90.4207981716 -225.326271305)
(357.42618534 110.116282052 -206.805024212)
(360.364475591 123.332200699 -187.071065423)
(357.693660923 130.88279372 -168.044544366)
(347.721416545 138.440177932 -151.107507628)
(345.127282521 -158.140404235 -156.03913863)
(347.6429618 -153.376913697 -177.10656083)
(346.059372884 -143.574090302 -199.027712032)
(339.322039622 -127.841874753 -220.066098339)
(329.893153006 -105.191035418 -238.927105395)
(320.567418391 -75.5740711772 -254.009362683)
(312.94648648 -39.3263883635 -263.934370028)
(309.998131328 -0.0177124519385 -267.218374955)
(313.001904099 39.2989606709 -263.893100388)
(320.712435235 75.5732804801 -254.050066552)
(330.061772802 105.182852466 -239.022250453)
(339.427907064 127.758169494 -220.180380861)
(346.222140746 143.251745072 -199.340190469)
(348.432264401 152.420401143 -177.960678881)
(347.208998437 156.002895515 -157.239977109)
(346.651114951 -178.888532693 -151.720003938)
(332.87550112 -177.623804975 -176.133995579)
(321.311956073 -166.528509307 -199.16497144)
(308.055401819 -148.098863625 -220.523340037)
(291.975998034 -121.550781536 -238.692987663)
(275.679154356 -86.7609922981 -252.044380208)
(262.395361335 -45.0413792531 -259.959392579)
(257.227879037 -0.0452739960926 -262.528242691)
(262.45785092 44.9875431441 -259.94809788)
(275.82337852 86.7238107859 -252.016263787)
(292.129989026 121.511685169 -238.727626204)
(308.237478139 148.045138225 -220.760416355)
(321.72054661 166.071039932 -199.666473109)
(334.103891769 176.334364096 -177.251591361)
(348.654484069 176.991237348 -153.416578051)
(345.373776 -199.864202293 -142.734246305)
(320.895210759 -200.089948177 -165.637907951)
(295.603124435 -188.720797992 -188.112603538)
(269.863224507 -166.402146868 -207.311096627)
(242.591307162 -133.823031389 -221.086103366)
(216.772834863 -92.7935121815 -228.321594197)
(197.461015966 -47.0567104516 -230.57551323)
(190.341286463 -0.0313813380684 -230.779780869)
(197.510528719 46.9950188801 -230.54815272)
(216.872565672 92.7594429303 -228.295270115)
(242.663376056 133.722314547 -221.083602947)
(269.960070772 166.302972633 -207.514497964)
(295.933242626 188.29495083 -188.621969023)
(321.707345488 199.132024132 -166.600539186)
(346.375729522 198.81612792 -143.748052054)
(338.996975589 -220.352101982 -127.492932)
(307.766918333 -221.001161655 -147.6663952)
(269.766602068 -207.656260505 -166.0825351)
(229.113679858 -179.441615252 -179.217961901)
(188.168224166 -138.45475607 -183.794440206)
(152.285031053 -91.3069961371 -180.940118121)
(127.570438016 -44.3349823873 -175.356800869)
(118.974351907 -0.055255164547 -172.52592758)
(127.659234974 44.2692789813 -175.280835292)
(152.290822869 91.2678398825 -180.889687894)
(188.056530172 138.316253693 -183.707835409)
(229.086153909 179.27076954 -179.21004255)
(269.844379307 207.33732834 -166.363476898)
(308.072828667 220.500489389 -148.23720053)
(339.360869279 219.982444079 -128.012180124)
(329.747218628 -239.134357327 -105.206716093)
(291.803871037 -238.913498536 -121.452075423)
(242.531103268 -221.292816575 -133.672227485)
(188.180547667 -183.951636225 -138.274459137)
(135.860666212 -133.612185919 -133.428415694)
(93.6523858722 -81.5409115684 -121.74148485)
(67.6643000709 -36.8125510983 -110.064269104)
(59.2878696454 -0.0205223272751 -105.157107971)
(67.7079795146 36.8527800297 -110.028707436)
(93.5382249085 81.5397500628 -121.689927962)
(135.700599416 133.510334903 -133.383452949)
(188.033639878 183.79515758 -138.221579555)
(242.453352195 221.029337524 -133.759306758)
(291.807402755 238.643924452 -121.647676068)
(329.856049492 238.954851459 -105.378339763)
(320.386910257 -254.230850997 -75.616820732)
(275.478122901 -252.215574831 -86.7633146366)
(216.707149449 -228.518654157 -92.8021119324)
(152.35352551 -181.123974691 -91.1945910948)
(93.8394072739 -121.885263642 -81.476865167)
(51.8555409592 -67.3391477429 -67.3111942801)
(29.1231202281 -27.5826494669 -55.4333916591)
(22.3222552416 0.0859578505366 -50.6447668913)
(29.0312029307 27.6392882821 -55.3780041303)
(51.6913084222 67.3219047331 -67.2948366265)
(93.5505471853 121.736758421 -81.4647906051)
(152.149022272 180.948928308 -91.118787479)
(216.528954331 228.252183291 -92.7630738614)
(275.273733568 252.001028319 -86.8349831851)
(320.318422148 254.058527516 -75.7500553376)
(312.824177511 -264.125311649 -39.2219838465)
(262.245947488 -260.18817377 -44.9604585858)
(197.48997345 -230.713779827 -47.0409704051)
(127.781575859 -175.482821941 -44.3090633786)
(67.9082563261 -110.149108425 -36.8527865684)
(29.0507305585 -55.393846998 -27.5402816208)
(10.2444060103 -20.5336680921 -20.5105219771)
(5.02631540118 0.021139797191 -17.4814200519)
(10.2372284144 20.5852805688 -20.567832741)
(29.0234131753 55.382175001 -27.6362912697)
(67.7647093906 110.045894474 -36.8525802751)
(127.622087484 175.349963138 -44.2366501644)
(197.42150278 230.538236978 -47.1091316294)
(262.317802841 260.047242438 -45.2538537808)
(312.935896016 263.95443006 -39.6789937781)
(309.936370563 -267.411738674 0.0304145646911)
(257.124659964 -262.679022947 -0.00155085949355)
(190.399523442 -230.839566032 -0.0446312283514)
(119.126665041 -172.59892839 -0.0288227472937)
(59.4072128682 -105.214114933 0.0190569003144)
(22.2758154903 -50.6316752291 0.0691186522058)
(4.9790090575 -17.4581950571 0.0263034992922)
(-1.08076432736 0.0244995323581 0.0537352166721)
(4.9839485836 17.4966007282 0.020668413794)
(22.2590127671 50.6054038131 -0.0483413174312)
(59.3300179023 105.166370023 -0.0779897856849)
(119.018180617 172.595155806 -0.0122652200951)
(190.375856341 230.848287036 -0.134131705027)
(257.345751391 262.685276601 -0.1672455578)
(310.187672673 267.306778297 -0.142885772985)
(312.868220325 -264.003456918 39.3270849131)
(262.292236292 -260.024436867 44.9819781731)
(197.45179703 -230.627370019 46.9710954412)
(127.606018451 -175.392452392 44.3055536739)
(67.6411645978 -110.041062419 36.8728271069)
(28.9611036191 -55.3551210869 27.6273514227)
(10.1572842564 -20.5010995677 20.5150034668)
(4.95464543803 -0.00884125515389 17.4713685694)
(10.1874341539 20.5238750165 20.5362976288)
(29.0396631508 55.3613556431 27.6011198082)
(67.726484827 110.025659604 36.7950114031)
(127.647364617 175.354578853 44.1769986701)
(197.429611713 230.603909161 46.8861072281)
(262.301548389 260.092040318 44.9128405014)
(312.919210602 264.061311335 39.3224308629)
(320.579349744 -254.031024399 75.5743021792)
(275.704271472 -252.024333311 86.716754146)
(216.670599992 -228.438595514 92.7965085259)
(152.201082229 -180.998241199 91.2488299193)
(93.4619636236 -121.737922578 81.531374876)
(51.548051684 -67.2825357502 67.2786527871)
(29.0044333647 -27.5934463089 55.3657409611)
(22.2669986766 0.00575052312573 50.5642132369)
(28.9770139099 27.5627066341 55.3149156729)
(51.7326807749 67.2748226675 67.2926665636)
(93.6558020659 121.756787805 81.4935133496)
(152.161147338 180.89006558 91.0611093657)
(216.525654602 228.325863644 92.6347530435)
(275.143248226 252.110689083 86.6779670868)
(320.148478746 254.158050117 75.5668334732)
(330.38440854 -238.884843087 105.217312743)
(292.739622047 -238.609796098 121.549872985)
(243.099538937 -221.205263223 133.859866867)
(188.395232277 -183.941951678 138.45246352)
(135.817540338 -133.583153979 133.612260882)
(93.4912445244 -81.5468351435 121.750301142)
(67.6725154124 -36.8371250465 110.014930788)
(59.3358186482 -0.0489087324444 105.09052072)
(67.7214502943 36.8517225597 109.972626678)
(93.6836352586 81.5004128895 121.737964655)
(135.684484074 133.456246646 133.480967344)
(187.757590702 183.673115364 138.170759322)
(241.819698559 221.039825011 133.566721063)
(290.903572048 238.884151662 121.410941522)
(329.141600345 239.33032946 105.221933481)
(340.276735585 -219.878173591 127.729079379)
(309.91533958 -220.363322906 148.101749043)
(271.582304098 -207.414011144 166.48764181)
(229.926246549 -179.491735236 179.521356409)
(188.448152981 -138.428936054 183.961148969)
(152.215774942 -91.2900820431 180.988635009)
(127.625022495 -44.3431754339 175.35724172)
(119.025352635 0.0459571190521 172.504273828)
(127.601289485 44.2591058459 175.277703013)
(152.218072432 91.1853306917 180.939061044)
(187.813677159 138.225254048 183.715547209)
(228.246912267 179.067576421 179.054899245)
(268.15942639 207.353924873 166.058666509)
(305.845696757 221.044318936 147.825584709)
(337.93677809 220.732778693 127.772944226)
(347.994610093 -198.85717355 143.357051236)
(324.891734832 -198.913322054 166.352323411)
(298.922621896 -188.194888066 188.518141109)
(271.660647748 -166.313570728 207.594807034)
(243.277167541 -133.812916336 221.269197858)
(216.859408338 -92.7626815443 228.407113155)
(197.503163319 -47.0183800487 230.583095258)
(190.356226762 -0.0167965769156 230.790089704)
(197.456432254 46.9868455079 230.579780479)
(216.67266389 92.6750173649 228.340784514)
(241.922532851 133.535077266 221.033237951)
(268.205309081 166.035852492 207.343664312)
(292.732647267 188.444807878 188.48861484)
(317.404807284 200.302098529 166.29976464)
(343.147012242 200.490868978 143.372590556)
(351.167840535 -177.260920692 152.903303496)
(338.073503926 -176.184803357 176.932884073)
(325.042406312 -165.968719842 199.421528182)
(310.058772095 -147.878492645 220.579940957)
(293.022806646 -121.461684692 238.695923599)
(276.071633907 -86.7541380256 252.048024227)
(262.461350741 -45.0247792665 260.015361458)
(257.201749859 -0.0549074346683 262.579553078)
(262.339570274 44.9379171835 259.986586)
(275.368348336 86.6290086122 252.061431304)
(291.004798795 121.310819536 238.873226087)
(305.929111361 147.820648737 221.136131797)
(317.444574937 166.247328205 200.310611012)
(327.956276143 177.860948653 177.872298797)
(342.72103321 179.480980586 152.939573529)
(350.23566084 -156.03747696 157.280358355)
(351.1624053 -152.387016983 178.001120289)
(348.076534947 -143.169146874 199.151050295)
(340.446582683 -127.687398783 220.114330304)
(330.618630108 -105.166925471 238.959450342)
(320.863492046 -75.6397442043 253.990900298)
(312.98267033 -39.3690400187 263.919690369)
(309.974868138 -0.0312670483763 267.278972416)
(312.882281803 39.2424637156 263.955496111)
(320.302409218 75.4936724497 254.07846978)
(329.199181088 105.115549961 239.295566477)
(337.930771515 127.67096686 220.672481974)
(343.149310333 143.237486393 200.40456044)
(342.743507492 152.858298508 179.436872016)
(341.825521257 160.224003963 160.229056803)
(348.916253315 -136.959829193 148.177949473)
(359.32611467 -131.320144536 166.988996853)
(360.838742757 -123.452547792 186.655004219)
(357.4945211 -110.110287672 206.711504049)
(352.64466963 -90.4055643973 225.29542524)
(348.016569761 -64.5287744612 240.335162578)
(344.822171382 -33.5077067618 250.203301622)
(343.619096982 -0.0417904498068 253.594374571)
(344.811612085 33.4000040061 250.162540188)
(347.926551523 64.4595667663 240.218269806)
(352.500743756 90.3732329204 225.330366551)
(357.161604566 110.067965629 206.996314261)
(359.898538044 123.352744609 187.542519332)
(356.828317739 131.09473549 168.636109642)
(347.645619931 138.564281686 151.303747459)
(349.818188458 -118.58549267 130.652345937)
(363.490307111 -111.915906563 145.374060667)
(366.941088121 -106.849487788 162.872566274)
(366.379693859 -96.3405348717 181.910999485)
(364.455848313 -79.739619015 200.160795439)
(362.378132903 -57.2529065194 215.394006596)
(360.895567048 -29.9821287491 225.618552028)
(360.413624246 -0.0305337023555 229.308778424)
(360.998837416 29.9279617122 225.622787949)
(362.553754872 57.2589410332 215.425211248)
(364.643106157 79.8172450155 200.290941209)
(366.510132617 96.4031249348 182.164415118)
(366.887089875 106.84869975 163.326973685)
(363.643002682 112.288351794 146.142677863)
(350.854399825 118.722966678 130.718843314)
(348.463536287 -97.1855014765 107.640000189)
(362.650770417 -91.9719679342 120.332662707)
(367.255957192 -88.1254803797 135.030609137)
(368.468750266 -80.1358447675 151.775159317)
(368.524662066 -66.8821483147 168.250326846)
(368.290143483 -48.3144350189 182.344641729)
(368.23915046 -25.414255939 192.046295263)
(368.352548544 0.0218409310024 195.549850203)
(368.412838946 25.4569245523 192.107684639)
(368.554039712 48.3873917763 182.451483119)
(368.812141272 66.9793945185 168.389729576)
(368.7597509 80.206732145 151.931543108)
(367.579287219 88.2046479531 135.226405535)
(363.08154714 91.9799762226 120.476791808)
(348.932860285 97.1696481254 107.697157396)
(342.849819647 -74.5515817115 83.422996926)
(357.543836115 -69.8805236982 92.3550402876)
(362.665517053 -67.4808281978 103.916641533)
(364.646143809 -61.8044953701 117.533771271)
(365.777211175 -51.8911162677 131.161822991)
(366.675206741 -37.6498469163 142.976263576)
(367.530981589 -19.8104782726 151.208020924)
(368.073720266 0.0597115877293 154.260464233)
(367.723520221 19.9133240262 151.317643876)
(366.942894029 37.7656987984 143.115327574)
(366.031284142 51.9819625562 131.245388917)
(364.994045482 61.9260735493 117.664217112)
(363.120554637 67.6297026586 104.072555532)
(358.134116073 70.1041839497 92.6058903219)
(343.427262748 74.7543840575 83.6456149867)
(334.27751498 -51.9258403921 59.2038406428)
(348.623461223 -47.1896633033 63.872889969)
(353.741761614 -45.8083224484 71.6188791333)
(355.724255671 -42.2021228446 81.359741662)
(357.207082702 -35.5543074256 91.3122112037)
(358.609323207 -25.8104460901 99.9923214933)
(360.072628279 -13.5102608112 106.166925736)
(360.957344017 0.0564183498472 108.519199516)
(360.156769166 13.6332667324 106.222760913)
(358.779148342 25.9073863803 100.048396648)
(357.463538431 35.6781427942 91.3789681866)
(356.10932855 42.352136804 81.4614686365)
(354.334011808 45.9983721908 71.6956817923)
(349.526710314 47.2839371703 63.8709799121)
(335.253492407 51.9523127335 59.211358953)
(324.733784106 -29.9663709525 35.525975954)
(336.53849321 -24.8768925411 36.2129229371)
(341.250938049 -24.1086973946 40.0306602841)
(342.680928458 -22.4180674343 45.5836698939)
(344.059816969 -18.8500545612 51.3310723335)
(345.509061932 -13.5418093726 56.4951005719)
(347.480092122 -6.91958674891 60.369203501)
(348.770359562 0.0544277184852 61.9303613152)
(347.520935519 7.017061243 60.379097038)
(345.635882244 13.6412765981 56.5681452531)
(344.31415381 18.9786582109 51.4306563906)
(343.152329116 22.6230024235 45.6769041401)
(342.069986362 24.3877138048 39.9962863021)
(337.935481448 25.06632915 36.1325253818)
(325.922594099 30.1185645261 35.6931481328)
(318.776944988 -9.0663822361 12.8479335204)
(321.804276166 -4.27774639295 11.564027987)
(325.91784783 -3.27376864799 10.9863148442)
(325.812255668 -3.51394951599 12.5905002705)
(327.32170655 -2.77391033561 14.1286477604)
(328.355771121 -1.81312235037 15.9488830385)
(330.728867555 -0.480461714513 17.2649936451)
(332.4067139 0.00913859683272 18.2537319351)
(330.69215257 0.524118899955 17.308856483)
(328.414858948 1.86964143295 16.016107378)
(327.633570029 2.90395808798 14.2363924511)
(326.35940498 3.77151362295 12.6898105206)
(326.771650273 3.74661082212 10.9024066328)
(323.235325215 4.30372726054 10.6921946763)
(318.371618369 8.5643260635 12.1019504703)
(308.613229691 16.2493379918 -16.1015506478)
(301.45718825 14.351912236 -11.6290909718)
(306.431716738 15.4920015504 -15.3083673036)
(304.708550652 12.4143834985 -15.6236728668)
(307.20353033 10.8476113518 -17.9061110752)
(308.211605531 7.37742775226 -18.0811070733)
(311.494855179 4.2043248095 -18.6883580577)
(313.508064218 -0.00676089309956 -17.5481249371)
(311.456876707 -4.20186784278 -18.6123175469)
(308.340612788 -7.36245431056 -17.986851051)
(307.610726599 -10.788030652 -17.7215099045)
(305.419165683 -12.2438417891 -15.3923266606)
(307.682937485 -15.0157728346 -14.8420127008)
(304.447146743 -13.4755485431 -10.9639586048)
(311.035958458 -12.2945373429 -11.9320001386)
(297.538664231 34.8148110587 -38.9535783536)
(285.824266988 27.446881422 -31.8684670581)
(290.446598045 28.7065032567 -36.0286471427)
(287.968780948 22.6182536903 -37.7014491446)
(291.627219186 19.2981283488 -42.8099246646)
(293.897925979 12.2814727575 -44.7871334992)
(297.600285219 6.30294936117 -46.2686269883)
(298.774972074 -0.0240037480311 -46.6698536683)
(297.552984019 -6.35135147698 -46.1913528372)
(293.85743157 -12.3146631614 -44.7316412054)
(291.696135305 -19.3144021452 -42.8166063322)
(287.887955679 -22.6931865935 -37.6702721059)
(290.251643529 -28.8947919074 -35.9913259725)
(285.657710827 -27.7338294464 -31.9220017638)
(297.377527859 -34.9488377051 -38.9422619222)
(284.727690617 51.1027784164 -57.3342035988)
(274.179568312 41.3707911522 -50.0125529796)
(279.070106396 40.3389433838 -54.3426505163)
(279.795223079 33.4136095818 -58.8742433455)
(283.570345677 27.6023738933 -65.9815474015)
(285.576434084 19.0059958395 -70.9207355753)
(285.642741418 9.72477284703 -74.3132908179)
(285.434971869 -0.0414970837304 -75.5819942575)
(285.577549717 -9.80177979285 -74.3193706033)
(285.555191604 -19.0238479937 -70.8854582732)
(283.674008846 -27.5809685759 -66.0348138491)
(280.036152812 -33.3590010096 -58.7193244315)
(279.201127266 -40.2509189315 -54.1388473829)
(274.561275522 -41.2505668537 -49.9407435007)
(285.11516237 -50.9907454224 -57.2427078302)
(271.006965466 65.466529357 -73.418108334)
(262.575991065 53.6966947601 -65.9806737296)
(269.269303473 50.0531265963 -70.1471881593)
(271.531759277 42.0018870759 -76.9865554705)
(273.5436563 34.2547008917 -85.5719156959)
(272.670341932 23.9171867453 -91.7454536731)
(271.467598104 12.4280425474 -95.8028628465)
(270.957522895 -0.0714227650527 -97.1204384576)
(271.367052655 -12.5651520104 -95.681351703)
(272.623766148 -24.0478009381 -91.6975994496)
(273.531984538 -34.2933332981 -85.4433931647)
(271.93984791 -42.0854374609 -76.8418397984)
(269.170091085 -50.2571328849 -70.0454030789)
(262.759427251 -53.7834122762 -65.9795558212)
(271.012524349 -65.4973747134 -73.3426904984)
(257.002289037 77.6634954829 -87.0337248828)
(252.014719551 63.7195108147 -79.7621322831)
(259.842854976 57.1830290792 -83.510885034)
(261.501632848 48.1787109553 -91.7127936127)
(260.058583504 39.0127375595 -100.572080856)
(257.23561938 27.5464708867 -107.238029612)
(255.172433075 14.4402841884 -111.764223431)
(254.263960781 -0.0282744635683 -113.441432911)
(255.185695055 -14.54878757 -111.724206132)
(257.315131147 -27.6754738131 -107.194578387)
(259.92471926 -39.0968069341 -100.759941591)
(262.189880047 -48.2538832848 -91.9767950455)
(259.540010293 -57.6312111762 -83.5985951296)
(252.388256805 -64.0977358278 -79.9849024753)
(256.965331761 -77.7302493664 -86.7887974776)
(243.127415531 87.6427031732 -98.3376556882)
(243.401942611 70.9033854364 -91.4808221975)
(250.071953237 61.0492414348 -94.1375063414)
(248.389215081 51.9197633616 -102.990247093)
(244.121290557 41.7657442713 -111.162938614)
(240.009600464 29.5893528252 -117.419733402)
(237.49186412 15.5085897383 -122.07131649)
(236.425533023 -0.108114482709 -123.77089931)
(237.480628555 -15.626393202 -122.064761733)
(240.30708745 -29.7865428379 -117.369817369)
(243.595533754 -41.8046218514 -111.061263684)
(249.143143605 -51.83724286 -103.308544931)
(249.782801903 -61.472594607 -94.4251742943)
(244.071432393 -72.2461800167 -92.6076675912)
(242.81196858 -88.2504171632 -98.1346824392)
(230.159347575 94.370014245 -106.040490138)
(238.130906534 74.8486360357 -99.9842268311)
(239.451423475 61.728249876 -101.671284486)
(233.915515097 52.663957164 -109.125462686)
(228.22232001 41.9972788236 -116.721430274)