/*--------------------------------*- C++ -*----------------------------------*\
| =========                 |                                                 |
| \\      /  F ield         | OpenFOAM: The Open Source CFD Toolbox           |
|  \\    /   O peration     | Version:  2.4.0                                 |
|   \\  /    A nd           | Web:      www.OpenFOAM.org                      |
|    \\/     M anipulation  |                                                 |
\*---------------------------------------------------------------------------*/
FoamFile
{
    version     2.0;
    format      ascii;
    class       volVectorField;
    location    "0.0002049282";
    object      q;
}
// * * * * * * * * * * * * * * * * * * * * * * * * * * * * * * * * * * * * * //

dimensions      [1 0 -3 0 0 0 0];

internalField   nonuniform List<vector> 
29700
(
(253775.505159 -72999.0232295 -77926.9226095)
(258246.082442 -71350.538727 -79409.5713416)
(264714.318741 -70625.1418633 -90573.6299873)
(283203.30551 -62839.0159208 -102129.905684)
(293276.531277 -50241.0322762 -109365.131824)
(304376.817369 -36839.8450553 -115573.406164)
(309376.227809 -19843.4930287 -119963.52109)
(310716.605816 -400.668995153 -122037.668968)
(309855.675182 18948.5108114 -120202.493261)
(303822.256658 35682.2462405 -115214.531134)
(294777.909334 49938.4578629 -110022.593046)
(282463.129101 62043.4176106 -103597.622961)
(265943.876733 70775.7026999 -93423.8246822)
(251552.022838 75540.1460375 -82062.4466222)
(247544.691365 74260.548344 -72296.785273)
(222638.656461 -72586.0327918 -76615.1365329)
(234658.150604 -79913.0652601 -91402.2524958)
(238682.637405 -71942.6375581 -100420.53721)
(251987.464133 -63111.0873538 -109401.359724)
(259442.531377 -49589.3272557 -116450.630318)
(268113.05037 -35355.5581016 -122050.739118)
(272984.491742 -18825.775774 -125828.359475)
(274604.772187 -373.141372214 -127327.415508)
(273043.094493 17876.698289 -125821.117768)
(267841.791474 34521.366352 -122096.531689)
(260056.679299 49007.6583001 -116545.675678)
(251170.73309 61865.0201115 -110106.243159)
(238941.595057 71822.5761903 -101790.069542)
(231076.954836 81044.9120001 -91425.9167597)
(226920.571731 73610.5885302 -74779.3105306)
(189324.392953 -69372.958707 -71610.9637492)
(194214.988433 -75782.2795973 -92220.2382087)
(204207.324097 -59942.8926016 -92715.7068618)
(219204.321101 -55153.0843672 -101038.553855)
(227784.794008 -44518.468099 -108177.019865)
(235045.537817 -31560.8199868 -114098.266483)
(239627.582979 -16496.7021653 -117594.341318)
(241148.897721 -284.970766244 -118898.985505)
(239620.817715 15846.2637087 -117651.433024)
(234988.048022 30920.8209396 -114116.599044)
(228256.410453 44011.5008404 -108242.709933)
(218925.394866 54629.0799322 -101530.125112)
(205042.366317 59709.5099096 -92886.202949)
(193646.343979 75200.4036118 -91715.7853568)
(190840.623167 69056.5423369 -71129.0997518)
(156938.231494 -63749.4779194 -64990.520226)
(158219.055726 -69001.461589 -84150.3836005)
(167114.185061 -54039.6184557 -84379.2301388)
(180804.874893 -50000.4957897 -94152.4168409)
(191084.963102 -40165.0445855 -100729.074688)
(197789.533132 -28948.5718321 -106978.130322)
(202154.558242 -15010.3523982 -110923.779045)
(203514.027399 -194.407202927 -112507.105971)
(202161.723356 14596.996027 -111243.570834)
(197933.851131 28616.5579183 -107236.688041)
(191480.108671 39815.9821289 -100871.080712)
(180942.31555 49547.8155051 -94371.9091435)
(167633.06293 53599.2258833 -84342.2369352)
(158053.914961 68326.2824081 -83897.8522153)
(157291.290511 63275.5052384 -64854.8259845)
(126537.507626 -56549.1027601 -57604.1340617)
(126004.575401 -61549.5268427 -75052.4042582)
(132571.390304 -48353.0959886 -75953.4305495)
(141171.842119 -44414.3795855 -85920.4550981)
(151414.806953 -35406.4683079 -92288.3881289)
(157675.85155 -25612.0817218 -98298.5163396)
(161172.20163 -13367.438312 -102281.878775)
(162524.001688 -175.007052627 -103611.826507)
(161227.255202 13021.6956303 -102263.235208)
(157918.898638 25243.2373973 -98256.4462252)
(151781.40325 34948.4005317 -92099.8865875)
(141213.549142 44143.9311181 -86106.9138228)
(132636.128276 47772.3293328 -75749.0790228)
(125861.605947 60977.5223331 -74907.1106928)
(126547.853003 56116.6504796 -57469.0580904)
(99542.4657443 -48462.6031665 -49787.2412985)
(98037.6220367 -52441.9107801 -64663.4074469)
(103199.810179 -41546.4936335 -65094.8486068)
(106621.970815 -38148.8706918 -74414.6811327)
(113820.70952 -29491.931238 -79037.5361236)
(119906.894911 -21386.6297907 -85357.083105)
(122650.830462 -11384.9690886 -88869.4983084)
(123649.761854 -155.706990709 -89971.1295961)
(122691.684391 11036.280698 -88974.7778792)
(120094.139634 20991.8011912 -85349.0144332)
(113973.037708 29301.9894374 -79207.2316798)
(106720.896385 38040.0756849 -74472.3922162)
(103230.632772 41286.0083769 -65092.1144758)
(97963.9335248 52210.8090499 -64560.8369857)
(99544.6090282 48212.976424 -49721.7945117)
(76425.0160154 -39834.7340661 -41760.4249629)
(74278.8819222 -41859.5491614 -53236.1690742)
(78387.6761386 -33817.2788988 -53148.4880517)
(78875.4918116 -31164.6726415 -60929.1916102)
(82157.6292781 -23512.691786 -63880.5386764)
(84461.915994 -17377.341295 -69339.4104816)
(88750.2558318 -8579.1559326 -72622.3829757)
(90028.6077655 -150.6902025 -73988.346)
(88806.4073441 8333.11804796 -72610.3568638)
(84542.9883251 17049.0086806 -69235.3096285)
(82159.0282297 23143.3042498 -63839.12436)
(78800.4509289 30868.7611751 -60912.1598151)
(78273.9573299 33461.5061884 -53189.3721709)
(74142.3729957 41595.4622434 -53286.458427)
(76328.0383976 39567.6549266 -41636.0708919)
(57142.8525466 -32172.0647104 -35277.0826089)
(56018.5402416 -30344.6667588 -40638.2184722)
(57728.4738904 -25569.7476581 -40395.5193117)
(57660.8188602 -22204.7536425 -44308.1603803)
(58325.80331 -16692.7371879 -45966.6301806)
(58580.0782817 -11481.1098056 -49006.7512779)
(60229.7553163 -5487.05076849 -50134.2803085)
(60912.7616736 -85.9401363413 -51269.6308637)
(60231.1231981 5340.17853276 -50219.5222481)
(58644.539726 11335.8249561 -48908.8745594)
(58347.0535574 16539.0524165 -45960.4675828)
(57742.1350329 22133.4919983 -44157.9193675)
(57810.0533936 25533.1383927 -40221.5152508)
(55986.6443042 29853.3910025 -39748.025572)
(56328.1306842 31362.4673079 -34453.4348639)
(41036.2207017 -25630.7053683 -29156.4596176)
(41832.7788856 -21752.705957 -29071.7880758)
(41666.7831745 -18616.6111927 -28766.1632246)
(40965.8203231 -15459.345186 -29925.9726015)
(40429.3145869 -11671.6910425 -30724.2240695)
(39925.5620146 -7603.06031868 -31666.8165411)
(40116.6537928 -3473.1539191 -31962.5357544)
(40589.5726097 -50.7237709679 -32192.5052487)
(40117.5621608 3387.73778912 -31978.2925543)
(39944.8823582 7521.33642846 -31621.479213)
(40455.7681445 11576.9251608 -30680.3057427)
(41052.1546276 15424.3177647 -29865.7143445)
(41884.6840996 18551.4471374 -28671.4584051)
(42273.5663407 21666.1828493 -28955.5177942)
(41394.82271 25981.6014044 -29682.5066838)
(29746.7456533 -19847.7819222 -22501.4680525)
(30542.6883141 -15391.2339912 -20589.9685531)
(29567.6717583 -12743.9076463 -19659.2115982)
(28362.3281235 -10240.0976977 -19569.2325885)
(27309.583636 -7574.32594121 -19605.4843658)
(26575.5749157 -4844.30429185 -19654.1388075)
(26288.9505207 -2288.03885389 -19589.774734)
(26355.7991006 -21.8423145142 -19585.2527817)
(26287.4674943 2242.35072483 -19590.3928794)
(26578.3483958 4779.59732794 -19639.3552078)
(27333.7367836 7491.47991832 -19581.811989)
(28404.4137856 10162.0751262 -19526.1668136)
(29665.8109547 12644.8794369 -19592.3032698)
(30639.4608161 15278.645982 -20527.0874649)
(29836.5176178 19777.0190741 -22546.6420757)
(21594.1452902 -13992.8111181 -15710.1690271)
(21555.1863428 -10399.226511 -13922.5472212)
(20500.9102472 -8191.07378938 -12773.0094747)
(19236.5982424 -6317.58121241 -12168.0212286)
(18134.6233068 -4532.12306897 -11756.188918)
(17348.0577204 -2845.7265628 -11430.9485023)
(16892.7542665 -1339.69065434 -11184.807173)
(16801.2549861 -6.84001282836 -11109.6638303)
(16894.7362708 1315.95495637 -11188.5374208)
(17344.6664957 2791.71678694 -11426.6965928)
(18150.6857597 4457.80000733 -11756.0920959)
(19271.1980361 6252.85041169 -12154.9722168)
(20548.2514785 8101.98907682 -12739.039632)
(21629.1425355 10294.1109366 -13864.934929)
(21732.3295333 13880.6328104 -15647.2095193)
(15585.7447639 -9308.67301475 -10378.0963934)
(15037.6108324 -6598.08057929 -8906.89826863)
(14034.2808702 -4905.11987394 -7807.40213655)
(12908.5586054 -3589.2574888 -7049.35291918)
(11905.2390472 -2446.32580492 -6458.60810724)
(11159.6646026 -1470.9308167 -6004.99314664)
(10720.5339802 -671.913967324 -5714.93940537)
(10588.2369479 -6.87619270395 -5612.06749795)
(10712.4609152 656.209091365 -5706.26382894)
(11155.3361669 1430.32391115 -6000.92973579)
(11904.6347771 2386.72301971 -6453.63567217)
(12906.1415216 3529.1958397 -7030.65781508)
(14041.1747517 4838.54445583 -7788.70595667)
(15055.7988301 6525.55429797 -8877.93446516)
(15621.590858 9243.99798553 -10347.6626772)
(11091.4764055 -5914.91371058 -6546.79248944)
(10410.2582387 -3900.05058177 -5366.8188801)
(9519.53190655 -2664.41166384 -4415.56779564)
(8570.07224267 -1786.51938327 -3665.59909495)
(7724.82921515 -1098.44432506 -3076.04830478)
(7090.71390708 -600.266937413 -2627.971678)
(6699.4000338 -252.861811068 -2343.90370833)
(6571.45476423 -3.03182246275 -2244.75708325)
(6690.58323864 235.063054373 -2337.93977534)
(7078.28690203 562.13651725 -2618.75047086)
(7720.40726339 1050.12212249 -3070.10667594)
(8567.48422618 1723.48999342 -3658.23630103)
(9529.936018 2601.32437339 -4409.89600364)
(10436.8729854 3830.70199225 -5360.09144911)
(11131.1097702 5834.76573651 -6529.57965985)
(7827.48577932 -3545.48130856 -3861.67305795)
(7205.82029709 -2073.27368771 -2974.78701532)
(6386.88784198 -1182.55177214 -2166.17514025)
(5574.68355588 -626.393440312 -1497.55070909)
(4866.6451518 -263.944693558 -977.19171017)
(4338.67645652 -60.6725646446 -583.72942351)
(4004.04864868 7.7498489529 -334.227443685)
(3884.80323674 -3.92533161327 -243.671277455)
(3993.47150656 -21.8406166081 -327.464345673)
(4323.5864576 29.9142692223 -579.415989983)
(4852.55936745 216.80995909 -975.295087781)
(5561.84872774 571.651908359 -1500.93669457)
(6365.61932241 1124.59961593 -2168.25853543)
(7168.22883835 1999.40831825 -2957.8350785)
(7843.48684621 3442.62269394 -3845.47528952)
(5434.94613382 -1980.63776529 -2033.04892848)
(4830.15414885 -992.549565791 -1348.22477854)
(4062.73468714 -317.753431083 -644.111323677)
(3377.28120749 33.7179143839 -71.8686823232)
(2763.01121072 190.222055836 384.349682323)
(2319.22376268 215.348190639 723.185605957)
(2055.57265425 149.968436378 946.87039691)
(1960.3580521 -1.59464642429 1025.73722638)
(2047.37610638 -161.936612044 947.538667699)
(2302.59713338 -242.209087255 724.698539662)
(2746.4167256 -233.010382305 383.022969622)
(3351.47723284 -86.8982305377 -78.6782671898)
(4022.32941463 256.436102897 -671.669487964)
(4748.10475559 914.384546053 -1405.87187615)
(5399.65861906 1859.38193638 -2075.09491505)
(3858.14616004 -1140.84468237 -1048.84564155)
(3071.31223007 -366.64419772 -445.509371978)
(2362.20773294 174.404618771 205.156403178)
(1718.67804105 438.455402615 755.729719409)
(1156.71681448 491.733080537 1192.00215842)
(745.751794587 406.851707125 1511.34911698)
(502.742927064 210.359174792 1706.2796589)
(406.452813347 -2.19953984348 1762.22667395)
(496.621468669 -220.245050365 1703.28861969)
(726.275087691 -428.842964235 1514.07964765)
(1135.50306991 -528.760500977 1193.97232383)
(1686.1846753 -479.603454476 748.096866545)
(2310.93492011 -219.479097734 189.824863873)
(3016.73423133 296.901105595 -466.739786615)
(3968.06327192 968.060027497 -1063.62760276)
(2933.16474293 -555.928693783 -353.467445264)
(1794.67753254 75.8784094889 88.0542346809)
(990.48012894 543.987719445 574.29658177)
(328.592680913 780.131625443 1066.15088237)
(-234.811697176 786.364692001 1468.96923089)
(-614.943183079 610.285808289 1705.8275697)
(-840.11956752 317.526020429 1789.23019607)
(-930.314059269 1.5851780257 1800.55918852)
(-845.270283225 -324.442983604 1787.65510728)
(-626.952859858 -629.88456679 1704.83399785)
(-251.784998309 -816.069744989 1469.07986849)
(290.958753667 -813.285291125 1071.27469763)
(954.450784011 -574.033793506 583.657140631)
(1821.65528698 -142.26920027 108.957130575)
(3089.29200917 390.448402985 -332.958302956)
(2286.70325224 140.849247342 188.556155177)
(943.708586983 554.306023281 542.924905184)
(-41.2854460247 902.249004392 897.924733193)
(-794.285905165 1038.19903439 1209.46749011)
(-1281.61097933 907.759635073 1356.91644485)
(-1515.82687548 578.084665826 1244.99752837)
(-1634.64336891 242.408077177 995.003355653)
(-1681.59695068 3.38746834994 870.019280188)
(-1635.59544311 -247.503877038 993.172850712)
(-1521.47829196 -592.718446613 1246.26331008)
(-1291.41365093 -924.574193864 1355.38787972)
(-817.52216817 -1060.92736273 1215.79097133)
(-54.819507384 -926.645709167 908.392138072)
(984.914863125 -608.541424489 550.911434451)
(2363.40231981 -239.297301241 190.60904984)
(1690.09657257 728.198229437 444.150157108)
(293.638223576 1055.69337634 784.611460044)
(-803.446011014 1216.99444823 1032.1831767)
(-1512.22535117 1064.09776508 1055.97182567)
(-1799.1269106 548.850952955 646.390291298)
(-1881.71484207 5.2380819299 -136.578038206)
(-1936.62017475 -174.632311069 -909.61316816)
(-1971.33384892 0.88055727226 -1223.0981691)
(-1938.28863851 167.188582526 -910.023417691)
(-1887.43321205 -18.8588414545 -136.940723101)
(-1806.19584916 -554.455848469 639.493029326)
(-1525.38821415 -1072.44253282 1050.27505021)
(-811.11731292 -1231.14473784 1032.88748235)
(314.595323517 -1088.59953027 785.214929379)
(1710.92870541 -779.000663851 452.506418048)
(1146.72559731 1192.22426752 498.319187546)
(-245.025373977 1471.15940214 792.280126681)
(-1285.92446345 1367.8383176 907.712367143)
(-1807.11506037 654.913428834 543.301898029)
(-1974.66652413 -411.820436398 -419.974623785)
(-2166.59387511 -1104.86320461 -1722.76043139)
(-2539.38869027 -886.829759592 -2780.09224847)
(-2739.52877028 -4.49312148302 -3157.13982039)
(-2535.83132174 878.973427765 -2775.50769271)
(-2172.15823903 1095.49460754 -1720.16176295)
(-1981.24534785 407.912333231 -422.353543667)
(-1818.41470618 -658.123940018 537.868877421)
(-1293.7175288 -1368.98467169 900.886782671)
(-244.23714879 -1481.14888765 793.145878608)
(1149.10017583 -1214.99693488 510.621146696)
(742.949957261 1523.3367484 408.947627745)
(-615.593255879 1716.45024556 613.371360901)
(-1522.55770905 1261.17932785 580.573188489)
(-1887.46947848 -126.506775886 11.1319228451)
(-2168.33163632 -1717.64345128 -1099.78499775)
(-2943.02113598 -2324.58483682 -2320.70532049)
(-3955.18315468 -1543.69921938 -3128.76976886)
(-4419.95501376 -3.97911469866 -3366.33544624)
(-3965.07914547 1531.40853162 -3121.78416087)
(-2954.95065656 2312.48586843 -2319.75715871)
(-2189.91840579 1704.6247295 -1102.27158092)
(-1904.3391289 122.623422218 2.35241866935)
(-1534.42389138 -1256.58024615 570.336356397)
(-632.023126307 -1717.80703074 605.044924918)
(728.146985525 -1536.11579337 405.755246502)
(497.220220048 1723.23364886 217.788701262)
(-845.175259454 1806.00669091 325.426716266)
(-1641.60605863 1007.60554707 248.889841408)
(-1945.55255327 -898.131524469 -171.288356472)
(-2537.91263705 -2775.77104185 -881.077443763)
(-3959.7081021 -3126.43028019 -1540.39169262)
(-5520.95762009 -1875.90463786 -1878.71427241)
(-6167.50974988 -2.32301419552 -1922.15413863)
(-5527.0546404 1866.03462648 -1872.8146323)
(-3974.07541595 3115.42161831 -1532.20941817)
(-2560.04208688 2762.9900509 -877.083765486)
(-1958.03406354 894.265107279 -177.094178894)
(-1647.59990236 -1011.61380026 242.191224281)
(-854.293525118 -1816.87061565 312.047276362)
(482.713073423 -1735.6931128 205.034265021)
(397.321885925 1783.66844281 13.9939121803)
(-936.941432657 1816.53416462 13.5338289417)
(-1690.96182021 877.217960749 7.99170057245)
(-1978.6630919 -1220.86834617 8.61618984771)
(-2732.17958172 -3161.50864744 0.976382057113)
(-4421.55315818 -3367.64294148 -6.1210278203)
(-6166.69335553 -1917.38161483 -10.0850265036)
(-6749.79524697 -1.11542177283 -9.39595213742)
(-6168.94152883 1915.53831236 -2.63656569894)
(-4430.91753266 3362.15859876 2.34715196784)
(-2749.22386555 3149.9352581 5.23944998263)
(-1982.71664748 1211.02733385 6.17291488954)
(-1694.31043543 -893.304166727 5.57296470736)
(-937.135817511 -1838.0129173 10.1784458901)
(394.592032557 -1804.74862942 8.64109309806)
(493.749231553 1721.70110686 -193.914172671)
(-845.983832439 1801.12037978 -301.896624842)
(-1639.5051804 1001.90398437 -231.233109008)
(-1943.82045135 -908.553894924 181.31341638)
(-2531.88702182 -2786.83213575 886.98938858)
(-3966.12359485 -3126.77227229 1533.38441312)
(-5522.76819169 -1870.47355107 1868.77607031)
(-6164.33597651 3.18968318166 1920.18144683)
(-5526.80794073 1874.38382668 1871.89575353)
(-3965.02555599 3127.70970999 1539.38180108)
(-2541.1391647 2777.06815627 890.374672281)
(-1943.4718037 902.248192478 186.671015569)
(-1643.32494678 -1014.34363195 -228.061512855)
(-855.116945009 -1819.83282575 -294.077875312)
(479.055327802 -1743.32926597 -187.736756747)
(743.398807554 1526.33080883 -398.117148713)
(-612.297177734 1715.48002064 -600.856237749)
(-1513.39685491 1255.60416606 -571.171762622)
(-1884.60002131 -133.943088195 -1.49867694517)
(-2172.32003276 -1724.21914375 1101.73026511)
(-2945.55866209 -2322.33789068 2324.74138389)
(-3954.28792406 -1531.21764916 3132.8282046)
(-4414.8221688 6.03451958305 3378.87431296)
(-3956.81551558 1538.58332553 3140.74901192)
(-2942.90197628 2323.12762163 2332.32749582)
(-2163.85347277 1718.47007553 1114.39097815)
(-1878.78087563 136.140326464 11.0331759661)
(-1531.28170705 -1259.25225622 -557.471804919)
(-635.825522701 -1722.0938508 -585.483606678)
(720.399234488 -1536.98550173 -380.727207068)
(1148.24376117 1209.24665051 -497.878357576)
(-226.605578958 1488.42893314 -789.010740762)
(-1259.03360015 1373.99978574 -906.870147321)
(-1788.55890158 656.524035771 -546.969236496)
(-1966.41235345 -413.014218497 417.144327149)
(-2160.70722879 -1097.96269861 1733.25077412)
(-2524.90609961 -880.419910302 2794.6152817)
(-2726.73276057 -3.6713173477 3175.14850538)
(-2529.96550506 882.686928389 2794.00375086)
(-2153.09632319 1099.15627525 1738.82049478)
(-1967.28305325 415.831280193 433.961971582)
(-1814.86658566 -638.841368125 -522.799254184)
(-1303.178657 -1350.80189344 -881.704381297)
(-254.475026349 -1466.58045717 -768.483455481)
(1137.96181361 -1208.33801005 -478.907088593)
(1706.80251578 771.660011001 -444.254374299)
(345.943058719 1104.45454876 -791.807345743)
(-753.452346003 1245.8420666 -1051.97396858)
(-1477.47183443 1079.93874318 -1072.20440677)
(-1788.64240256 557.977089643 -648.819579675)
(-1878.51475128 11.7558512212 144.081618922)
(-1931.11217813 -172.20372011 920.602204693)
(-1967.2647465 -2.43879642106 1240.33462459)
(-1932.34264404 169.12844813 927.123196714)
(-1870.58814251 -8.81236625293 152.141180755)
(-1812.48155894 -542.100344608 -620.341485519)
(-1547.1846309 -1040.98189854 -1017.5430422)
(-835.462233881 -1188.55478323 -1001.2842332)
(285.679506419 -1040.5201119 -758.249465368)
(1687.22652493 -745.992958008 -433.18734355)
(2338.24812635 225.512797954 -200.57303746)
(1016.62537395 626.942933286 -581.857161884)
(15.4702556608 942.746916938 -945.267832756)
(-758.292958917 1056.04841768 -1246.90579404)
(-1264.86134405 915.097457224 -1373.04224753)
(-1513.94160134 580.407481748 -1245.48124871)
(-1632.93848095 242.332832434 -986.956262746)
(-1679.10489352 -1.1343921916 -859.386355665)
(-1630.63392526 -243.268614062 -983.796988789)
(-1517.23367267 -579.18667939 -1233.1337283)
(-1292.3278394 -900.416770527 -1322.06320004)
(-828.969649544 -1021.65861213 -1161.14679813)
(-76.3061152624 -878.554372322 -853.596499498)
(938.439682319 -541.810543304 -506.221880805)
(2289.29124008 -156.592884751 -163.4199138)
(2988.51246797 -428.58517372 323.848270477)
(1816.73348597 141.241902672 -159.198156256)
(999.35377506 579.972005869 -642.744297112)
(336.249463981 795.266103498 -1108.6146795)
(-234.178124176 797.670020503 -1487.70983469)
(-616.418194887 615.527922498 -1708.92966355)
(-840.646160945 315.988432557 -1786.67996703)
(-924.671345927 0.33102878252 -1793.88616117)
(-834.832516112 -315.392918417 -1778.4759508)
(-614.518711043 -608.160728631 -1685.89003916)
(-236.56071074 -788.358107649 -1430.37357487)
(293.862608001 -778.949099247 -1010.93147341)
(944.384205279 -528.621041578 -511.186285835)
(1788.36448034 -75.2107405902 -45.3154357802)
(2996.36983776 533.058089724 370.80581023)
(3812.29977522 -1112.11396989 1044.65017451)
(2971.02966162 -344.335187991 399.447176526)
(2321.90785449 194.168914777 -237.348157892)
(1693.40393474 451.943027362 -778.755133281)
(1140.5327633 506.101572945 -1206.96252365)
(741.814627209 413.196902653 -1514.40767733)
(504.665472287 210.696995068 -1700.68562862)
(410.933734026 -1.14314607029 -1757.18784924)
(506.171977681 -208.375702391 -1695.60443235)
(743.614302162 -403.89413133 -1493.12516626)
(1159.85250645 -499.981637996 -1163.68601039)
(1704.32965881 -447.010734318 -701.583116117)
(2303.18765919 -180.940719224 -119.234501479)
(3009.10206498 344.156131119 561.699530198)
(3733.04007852 1001.6291564 1027.30998287)
(5326.07069865 -2063.4424248 2198.36534147)
(4773.21092616 -939.795790511 1378.61271582)
(4059.7916315 -281.554595749 652.156624526)
(3362.36837519 56.7710545101 75.8522434354)
(2759.361151 207.4990665 -376.801177797)
(2317.85149488 226.371227196 -715.368865767)
(2060.42044661 153.980885746 -936.440096519)
(1972.02911656 1.2893517184 -1009.34290274)
(2062.89662515 -151.181903741 -930.990251744)
(2323.74903536 -221.887820459 -700.616723081)
(2767.80963122 -207.369076215 -360.883160283)
(3366.92908009 -54.5343545063 99.6433059748)
(4019.37528671 296.122504568 681.386938717)
(4757.83554925 948.543544748 1425.19104787)
(5358.69418409 1923.8461741 2099.17030808)
(7836.77867284 -3526.50749563 3874.05123736)
(7189.6452441 -2047.86058631 2989.15553129)
(6381.01758967 -1147.1809095 2177.03006118)
(5571.45815399 -599.043996781 1513.17405987)
(4874.90072162 -244.925847877 993.879616313)
(4348.05412236 -50.9086858425 602.598336392)
(4011.36227378 14.1587746012 346.27863356)
(3892.63001521 -0.761401313444 255.345596449)
(4002.86083611 -18.5488602946 341.147886789)
(4337.37442939 40.280833866 596.776932514)
(4862.55325195 232.450783463 988.574893248)
(5572.88618558 598.197748349 1517.18218363)
(6377.42231928 1158.6261461 2184.17525604)
(7174.80564472 2032.31205882 2977.0672412)
(7847.67403688 3494.22286165 3881.54343289)
(11092.4219545 -5888.99272682 6542.88185003)
(10400.5141507 -3872.6574364 5369.38496987)
(9511.88945941 -2635.87942175 4415.4257809)
(8560.70788317 -1752.99818583 3669.6763295)
(7735.29572006 -1083.60569466 3091.89004492)
(7106.95107469 -592.09818682 2652.95960934)
(6708.91331549 -250.869507098 2361.60610148)
(6576.8459855 -9.3692393127 2256.99990449)
(6693.85378565 232.862064453 2346.28720587)
(7090.16339519 570.020092773 2635.19024522)
(7721.51927053 1060.15886468 3075.95237842)
(8577.11693097 1750.16135127 3667.76275362)
(9544.63328675 2632.54748311 4416.82058028)
(10467.6301574 3868.53679354 5376.9740082)
(11163.8002235 5884.54353191 6566.46695524)
(15609.4913787 -9295.17372123 10368.9601548)
(15045.7088443 -6581.00708629 8905.85430142)
(14023.9781517 -4883.51195193 7800.24022029)
(12884.6224008 -3563.03935364 7035.77870077)
(11903.4224609 -2426.88576381 6463.30149435)
(11174.8961085 -1466.43405638 6026.13587877)
(10726.1710224 -680.836295571 5728.59914166)
(10587.368013 -19.3634178039 5619.25588066)
(10706.3211835 645.535504208 5706.90232368)
(11156.8393907 1435.49484711 6003.66759193)
(11905.7493885 2405.565384 6455.80104437)
(12921.6431954 3559.95801688 7042.09846104)
(14073.4720164 4887.41030219 7808.5519897)
(15088.8866195 6572.8171449 8902.07537826)
(15650.6507935 9286.88945212 10389.1003614)
(21649.7102925 -13977.3643857 15703.248771)
(21560.501871 -10385.994038 13919.1261805)
(20480.5087964 -8173.38643334 12751.3716824)
(19216.6875447 -6307.45672155 12144.7086033)
(18118.837412 -4515.85336082 11746.8958966)
(17339.8742561 -2840.40341484 11434.488609)
(16898.7562235 -1354.78540272 11196.2014416)
(16796.4641698 -33.0089846575 11110.6407359)
(16885.3450232 1297.78849202 11180.6148414)
(17342.3790239 2810.16621248 11420.3574888)
(18149.7695729 4491.40699486 11740.7136577)
(19280.0903884 6293.93496106 12151.5025588)
(20570.2820826 8158.10583076 12756.3439631)
(21672.1632054 10346.2628212 13888.6263816)
(21765.1538704 13926.3101663 15693.8299826)
(29729.8288958 -19838.8659525 22488.5717106)
(30546.8519441 -15393.7493074 20574.6872157)
(29535.2670596 -12729.421902 19599.3625293)
(28309.3698742 -10217.4225801 19517.5775525)
(27269.8576814 -7554.44217904 19585.8651449)
(26558.1397899 -4845.31074427 19642.2652707)
(26287.5567881 -2313.93704659 19581.3841431)
(26361.2599489 -55.7959143545 19573.5118171)
(26290.2391124 2227.54426779 19576.6316098)
(26581.2483926 4807.80321924 19626.0095777)
(27346.4042957 7547.65704249 19582.4162824)
(28426.6649787 10229.8424589 19536.4813317)
(29687.5777138 12727.9133702 19638.683802)
(30690.375742 15345.232837 20560.7544246)
(29930.0448426 19799.3194892 22581.9538686)
(40815.8764989 -25742.9293026 29194.9501231)
(41813.0633374 -21780.2433166 29042.7039026)
(41613.3558494 -18594.3836027 28671.9047272)
(40905.4423544 -15450.7017635 29865.2391975)
(40326.2165628 -11629.310577 30710.5783539)
(39867.8574283 -7598.47756828 31626.034469)
(40111.6247395 -3502.45993019 31951.9690378)
(40612.9908735 -69.8109502297 32181.1483267)
(40135.3414483 3382.44399261 31957.3751183)
(39964.1002684 7555.72654292 31622.7848782)
(40456.1610364 11644.6686428 30707.9440826)
(41034.1461139 15498.4224475 29905.0220549)
(41898.0527405 18663.4952365 28772.5451906)
(42329.0931875 21722.5945412 28999.2656776)
(41674.1296394 25880.811442 29625.6072865)
(57176.3786714 -32136.3282612 35182.7377717)
(55952.5380946 -30369.0581166 40634.0481415)
(57672.612039 -25537.9354493 40359.7373785)
(57612.5149985 -22231.7959999 44289.3886899)
(58193.1246164 -16624.97937 46029.5012581)
(58557.8305644 -11465.0692804 48947.3701073)
(60204.9470645 -5516.57528198 50167.1391435)
(60906.535513 -97.8399125462 51269.295455)
(60238.522786 5328.82682487 50172.5618906)
(58624.8307829 11340.9729165 48929.1832127)
(58331.0950704 16614.6068901 46024.8220878)
(57680.6256064 22254.1844633 44291.7190487)
(57856.5330118 25687.5761735 40346.9410491)
(56079.3373965 29969.501079 39859.8681929)
(56468.4886738 31453.1723774 34595.3878334)
(76435.9111666 -39823.6412559 41639.9679338)
(74166.326205 -41961.6615238 53246.9022161)
(78306.8986496 -33812.9581321 53147.9816833)
(78682.021038 -31194.5314497 61085.996082)
(81921.0846562 -23467.0489772 63998.1413077)
(84444.343915 -17288.0400475 69239.1894773)
(88775.5373298 -8602.94090022 72597.2967535)
(89969.7534878 -144.252253607 74039.1824723)
(88712.6011394 8298.68593046 72652.5952272)
(84504.8928419 17029.9411874 69223.3214626)
(82068.0793698 23246.6908287 63969.1226697)
(78738.8301815 31049.6708956 61118.3753191)
(78416.1846416 33676.6438688 53294.4163783)
(74391.3186147 41732.744413 53375.4511976)
(76514.6353753 39713.5749445 41916.0553117)
(99500.7363972 -48486.8266248 49756.3941409)
(97904.8874527 -52493.0755013 64594.9463578)
(103060.355442 -41588.4673111 65102.4337477)
(106273.647771 -38189.4596144 74584.5609652)
(113523.958909 -29456.3426093 79234.8467454)
(119882.171932 -21244.4061663 85308.7564137)
(122699.269758 -11351.2867928 88716.8266954)
(123609.731188 -216.043900697 89863.8428968)
(122674.799409 10920.765707 88776.4502528)
(119947.073224 20913.2729532 85272.639653)
(113761.089719 29187.3982427 79187.9989177)
(106546.176029 38082.1051552 74741.1837034)
(103346.483037 41521.411323 65245.4105347)
(98241.3646789 52443.1074214 64773.6282647)
(99809.9167986 48356.5465582 49944.2239272)
(126489.826268 -56675.2506087 57620.7155495)
(125727.066174 -61636.986031 75110.9397961)
(132267.236043 -48397.2124273 75840.6006984)
(140542.686925 -44442.554224 86194.3240909)
(151357.215585 -35319.3201246 92205.9267506)
(157588.014565 -25621.901972 98476.3360869)
(161166.776936 -13515.2767621 102456.355944)
(162534.267337 -379.554282431 103758.146299)
(161167.842901 12839.4166706 102301.026259)
(157585.528101 25015.8449857 98372.3145199)
(151203.74049 34798.7078454 92428.0069554)
(140813.307615 44074.541757 86359.3560173)
(132648.383436 48129.5102426 75934.4708814)
(126237.382519 61398.964103 75277.7481788)
(126780.074835 56342.9286297 57793.1014932)
(156968.519 -64114.1220078 64929.5109225)
(157400.196362 -69556.9478671 84679.0167032)
(166410.447863 -54347.7297718 84644.017276)
(179868.450138 -50118.6469731 94616.0273987)
(190893.408069 -40281.7018914 101132.122909)
(197576.22993 -29134.0196724 107446.47459)
(201861.750922 -15146.6831326 111369.448103)
(203287.43276 -241.413878738 112749.46921)
(202002.749722 14542.7752534 111412.116154)
(197737.73646 28320.5843997 107354.424218)
(190762.311591 39473.5759682 100916.454648)
(180607.926591 49544.8537794 94243.7571371)
(166720.762322 53737.6717172 84839.3564577)
(157999.550406 69243.2884709 85007.1551416)
(157199.247172 63628.8529692 65202.5414537)
(189889.048222 -70038.8111089 71238.8555177)
(192482.068944 -76748.2351732 92927.5057104)
(203186.186116 -60470.206376 93234.9732844)
(218164.415658 -55044.7347804 101397.284944)
(227980.006183 -44858.8898972 108566.994574)
(234821.583274 -31743.8501661 114305.332897)
(239405.894436 -16647.4476162 118097.347164)
(240860.347607 -493.588324941 119440.113874)
(239455.349775 15778.4795072 118050.168852)
(235110.741762 30818.75395 114368.948477)
(227218.065077 43661.9790401 108344.608419)
(218705.007572 54508.7068207 101159.642213)
(203462.163117 60237.9182546 93901.2924045)
(193280.063913 76301.5629612 93384.1513536)
(189462.886144 69232.6355441 71607.055211)
(224991.879613 -73884.0120185 75457.2124537)
(230646.830318 -81124.112499 91269.2443594)
(238274.215695 -72204.2472537 100839.258545)