/*--------------------------------*- C++ -*----------------------------------*\
| =========                 |                                                 |
| \\      /  F ield         | OpenFOAM: The Open Source CFD Toolbox           |
|  \\    /   O peration     | Version:  2.4.0                                 |
|   \\  /    A nd           | Web:      www.OpenFOAM.org                      |
|    \\/     M anipulation  |                                                 |
\*---------------------------------------------------------------------------*/
FoamFile
{
    version     2.0;
    format      ascii;
    class       volVectorField;
    location    "0.0002049282";
    object      qWall;
}
// * * * * * * * * * * * * * * * * * * * * * * * * * * * * * * * * * * * * * //

dimensions      [1 0 -3 0 0 0 0];

internalField   uniform (0 0 0);

boundaryField
{
    farfield
    {
        type            calculated;
        value           uniform (0 0 0);
    }
    wall
    {
        type            calculated;
        value           nonuniform List<vector> 
1350
(
(66460.9598093 44285.0767554 47447.6936456)
(59923.9647417 38530.9187443 47874.9382101)
(52539.3707583 31725.6507771 46948.5607494)
(45631.7034994 24621.6152289 45752.9239613)
(40977.71217 18087.5417264 45220.4000899)
(37924.5878779 12132.8593549 44960.2866875)
(35759.5278537 5888.02510597 44561.0526939)
(34908.1606759 216.699912123 44279.4387573)
(35274.4610391 -5818.63743132 44112.6832996)
(37450.3748485 -12025.4681696 44537.0328701)
(40789.9331776 -18228.2537378 44972.1647958)
(45995.6782107 -24731.9650883 45987.5392365)
(52368.6881883 -31353.0529288 47001.1045072)
(59407.1015413 -38215.3729672 47511.0910265)
(68170.5126288 -45462.1752759 48401.6314304)
(87334.7316317 51674.0942996 55544.2303634)
(79610.8663295 44920.6998824 56836.1868652)
(71803.8679936 37903.6088369 56891.062023)
(63850.4513136 29916.6136425 56213.3299402)
(57648.6080339 22108.8663008 55655.6691767)
(53174.6884 14429.7083694 55218.4866833)
(49703.9225598 7555.98073241 54201.7984419)
(49708.3181102 -34.2975572706 54837.2919761)
(50350.6245985 -7213.68572072 54771.5718423)
(53504.4492177 -14530.4024269 55450.1208921)
(57922.9083837 -22140.4284582 55865.3027197)
(63956.4737219 -29729.2980569 56382.1113716)
(72245.1083413 -37940.0647812 57171.531814)
(80392.6033331 -45333.8661551 57245.4749206)
(86893.0162963 -51324.743286 55446.3469294)
(113756.424985 59536.1290088 64216.0157491)
(107220.716348 53060.0239581 67055.4818468)
(97902.3423193 44903.7931724 68012.067267)
(88923.9044968 35959.7208842 68291.5913357)
(82028.5794678 27373.2524201 68435.1764634)
(76286.6698011 18249.6728317 68268.3561634)
(73089.9274625 8772.88772467 68410.7286188)
(71627.1015192 36.2018967726 68150.9299604)
(72889.3014302 -9101.34147703 68228.0338217)
(76023.7390765 -18154.2039955 68115.8146381)
(81923.766107 -26852.1969321 68555.8263183)
(89617.6478819 -36287.631526 68537.3563042)
(97438.9304572 -44607.9912803 67855.6750375)
(107305.049967 -52899.1518104 67164.0883069)
(114180.954695 -59777.7791481 64168.4713964)
(147750.310884 67724.7414253 73178.2789338)
(143001.648692 60694.1431564 78439.8690787)
(134767.762079 53183.1402909 80712.7261145)
(125237.096342 43436.4243157 82309.0279638)
(116853.509002 32961.72839 83449.453786)
(110616.139275 22268.8875559 84223.9945585)
(106139.404198 11187.8775048 84462.0356016)
(104370.418211 -107.480431435 84436.0868613)
(105607.279283 -11109.4919393 84198.3043633)
(109640.335252 -22202.4426448 83746.2660876)
(116215.739867 -32963.7167099 83085.1393761)
(124328.340654 -43134.1865542 81955.0230863)
(133868.379343 -52758.1097911 80449.7303395)
(142871.875309 -60578.4095943 78427.7145139)
(147285.686485 -67511.5057921 73021.0071614)
(188521.157235 75290.8109602 81372.523245)
(189767.828597 68874.8885936 89593.2879405)
(182699.784865 60655.8851862 93807.8730925)
(172699.053115 50628.5591416 96442.7352458)
(164007.556411 38849.5225834 98965.775877)
(157623.168162 26636.4275921 100953.027184)
(153556.151883 13297.4238059 102377.359331)
(152721.421326 22.3724737665 103111.402168)
(154089.894635 -13089.7530922 102626.752027)
(158141.027837 -26333.6798665 101234.565891)
(164287.776345 -38735.0778626 99069.6921271)
(172324.96935 -50414.4510485 96310.7690688)
(182083.677989 -60654.0940641 93452.4192256)
(188105.350202 -68265.0276972 89229.9893035)
(187579.154195 -75070.4727124 80924.4210969)
(235067.00872 81047.2004047 88343.96563)
(243802.175139 73923.5668385 99544.0290498)
(241486.515327 66791.0905064 105108.997289)
(234727.240315 55539.9868879 110138.883613)
(229008.848795 43654.9678057 114629.143334)
(224366.952029 30435.1995541 118064.585219)
(221222.963519 15355.2143697 120552.320811)
(219691.126557 -69.1912934114 121436.005893)
(220740.004299 -15588.1681473 120378.725974)
(224027.963895 -30472.0288888 117937.055352)
(228786.05233 -43800.9677645 114408.518175)
(234524.348824 -55859.2891152 109799.017862)
(240455.181596 -65887.6915887 105134.680381)
(243348.28564 -73650.6821364 99429.5924344)
(234213.621112 -81488.7504921 87766.8697412)
(286737.54572 85944.1984944 93149.6755071)
(305576.124926 75482.6376326 106595.187613)
(309628.439674 66776.5056874 114261.746543)
(310826.678729 56716.8741912 120959.871323)
(311662.138949 44557.1768464 126982.332003)
(312981.144092 32297.0779138 132030.089901)
(314693.30185 16368.6427137 136139.535484)
(315789.310016 -391.520438488 137813.787406)
(314898.731593 -16707.5448615 136114.508706)
(313675.532505 -31845.2893666 132233.957097)
(311332.031738 -44739.3216499 126867.492536)
(310633.509227 -56382.9967909 121025.417505)
(309450.56691 -65852.5875044 114484.980929)
(301793.775656 -73611.5013934 106333.248254)
(280942.571373 -84462.5317514 91716.4255144)
(399770.016763 89349.1029927 105018.416846)
(397135.5434 75579.5968529 114429.941358)
(409186.770357 65547.2891397 123378.086709)
(413610.87996 55383.1759652 129199.771924)
(421752.347905 43362.9907445 135604.84677)
(429743.598724 29694.2303274 141218.708417)
(432753.598151 11395.1184389 145783.505391)
(436783.073844 7.61715633492 145001.512687)
(433751.506887 -11108.8357958 145871.226856)
(428887.923438 -29875.0934189 141293.635194)
(424307.539639 -44180.2712031 135745.481412)
(419296.705905 -57077.0986672 129283.783955)
(416909.889912 -67865.5149712 123673.917388)
(409546.547995 -77535.9918241 115316.750615)
(428711.674786 -93209.0651265 105695.33083)
(564795.243031 98169.5749044 103058.211981)
(521933.108925 76949.2747107 118552.49638)
(536713.533835 63686.0225754 128293.904821)
(538627.683575 52836.3457183 132790.068018)
(544487.116274 39105.3020712 139071.721898)
(528008.870382 27586.7603603 142507.997738)
(489084.718772 18167.3681236 141297.103127)
(481667.121579 -499.667231495 140398.039337)
(489361.148751 -18761.5294752 141230.777564)
(529728.687502 -26722.313303 142615.396397)
(544756.157692 -38772.4431635 139115.578975)
(537748.323295 -53366.623132 132048.231347)
(531993.151453 -62431.1395303 128762.559339)
(517052.929808 -76038.0319794 118567.238584)
(558383.101312 -97505.9885359 103080.731511)
(703011.942554 90303.9823666 95235.1853034)
(648077.958497 71780.1777904 115508.045308)
(676719.168994 56431.7971245 128005.58033)
(674001.390503 50808.5136249 131850.219579)
(668589.841257 40855.0233188 137220.709193)
(635143.348435 36669.3638431 139065.888003)
(628575.463464 20080.4883853 141844.252795)
(629681.165095 370.40875435 143007.19356)
(629910.665427 -21350.5872754 141497.517294)
(635949.74461 -37292.9979768 139070.014508)
(670249.936767 -42110.5141002 136932.955504)
(673319.438728 -51253.7446411 132209.392761)
(678025.851798 -57038.2834445 127735.853078)
(650001.318821 -71438.9673179 115651.062564)
(703811.98217 -91513.8877204 94310.1840041)
(884088.959466 75366.2752141 76681.9531554)
(833419.384465 64775.9018022 100309.678063)
(852989.430794 52497.7237396 117880.449348)
(836715.448895 49866.9708536 125449.977003)
(815107.655873 47012.454406 128496.367878)
(802213.250185 39613.6006124 133536.483705)
(802210.864819 21751.3124984 138138.565116)
(800639.401091 469.300441752 139190.3099)
(804036.636847 -20855.1196759 137529.713618)
(801444.443858 -41295.1508328 133658.939996)
(816862.047546 -47473.0814122 128522.86092)
(839113.326334 -48198.1294704 125736.150968)
(854314.377681 -51460.7098617 117903.397261)
(834321.96395 -64774.9968934 99491.0230366)
(882238.006778 -76093.783842 75802.9080072)
(1072538.12619 52197.4433541 48787.6791199)
(1046937.82958 54510.7658131 65908.0853736)
(1039396.98524 43179.9235203 100075.13663)
(997001.263714 47399.104032 109590.958496)
(981614.469338 48598.7163217 113913.362415)
(989596.482404 34522.5739384 119287.427304)
(995026.299008 19364.8191204 123542.139917)
(1000553.25556 -145.803966364 123880.412464)
(994494.271579 -19373.8612788 123990.812146)
(991063.70541 -38616.7516485 117924.242005)
(984681.807001 -47555.0039209 113944.421978)
(1004940.52642 -48619.1338066 107439.252128)
(1038871.98087 -42504.9850425 101052.383069)
(1050146.52182 -53186.2275473 65696.7227352)
(1073151.31378 -52033.0970113 48353.4871931)
(1286117.68917 13602.1762376 8355.47468246)
(1281779.44331 38238.1207452 14853.5995954)
(1184683.86434 44974.6181112 77473.6940246)
(1144408.87729 47439.499723 86952.1213775)
(1163916.83976 43033.8603527 88727.0199625)
(1183798.5201 33853.7292338 91994.3744602)
(1202700.57364 19791.9868235 91954.4658495)
(1207557.49004 -108.704924565 93434.4220561)
(1206154.31075 -19460.7212967 89961.5186149)
(1183548.599 -33140.9656223 92320.323142)
(1166717.91403 -41969.1240509 88216.9286666)
(1147965.55775 -50426.6416613 86947.7795125)
(1181894.74154 -43023.2902381 78988.8262475)
(1278933.44461 -41324.0440644 15852.4984971)
(1288659.6492 -14385.8621603 7768.55186171)
(1500717.26334 -34651.8455366 -41375.1251616)
(1439652.68667 33027.2122856 -28166.6809809)
(1241873.98713 63883.2026266 53941.5013926)
(1290799.77551 53963.3500153 49563.3195183)
(1350863.09923 45285.9434289 46691.0581097)
(1394550.57834 25374.4292738 39834.9837975)
(1425979.9671 14923.9926151 34606.6836734)
(1441705.46059 719.905591378 30506.9736016)
(1420610.12629 -14999.463922 39222.093056)
(1396805.16128 -29197.1910764 38658.8727844)
(1344864.7046 -42074.6978889 49180.0328446)
(1293143.44402 -55203.4272161 53580.8853384)
(1232281.78329 -61380.1306734 58901.0747179)
(1383193.55049 -40504.9473724 -2187.93843097)
(1515873.83885 27802.0321118 -43737.7823197)
(1717749.12347 -92577.1553288 -98184.3360784)
(1405543.6187 -22656.3844278 18351.1366838)
(1727092.69491 -65627.6193403 -62764.9011828)
(1715949.70713 -60902.9421908 -72367.1050644)
(1823738.03678 -76655.7307176 -118813.065822)
(1854971.58716 -78047.123823 -153107.091564)
(1889158.75305 -44217.3928829 -174941.649511)
(1890765.44727 -363.150781735 -181994.850147)
(1887361.75069 39766.6850089 -175674.897073)
(1871599.56096 71391.481723 -157874.865403)
(1811464.41591 80148.5611218 -111960.658698)
(1712561.23895 65013.9203818 -72551.5808616)
(1696600.79325 48859.3432454 -49446.4684731)
(1454797.04485 16802.5520331 12858.1523127)
(1696976.27968 117939.652292 -49242.144419)
(53393.5956416 40366.1647512 40238.7187111)
(47348.6978983 40171.1430063 35256.333112)
(39414.1333187 38456.6344786 27989.3057921)
(33646.6309538 37336.0400592 21736.4124209)
(29119.463729 36300.1634337 15762.0943815)
(25961.3633376 35560.0155721 10109.0786696)
(24049.5223273 34944.8581781 5142.28703445)
(23635.1631293 35032.1913647 17.0301098376)
(24147.1093538 35091.3052621 -4921.74768828)
(26524.4390107 36121.0501032 -10283.8010843)
(29505.4548018 36768.6596836 -15651.0330008)
(33781.9474887 37532.5805548 -21631.9252092)
(39603.1307246 38673.5486446 -27943.5318355)
(46462.7714315 39660.3800784 -34541.9690309)
(54717.1836005 41221.5036707 -41340.926624)
(46848.1414666 34808.64037 40018.4325908)
(37718.1796041 32504.4383584 32910.2730971)
(30628.4172199 31224.9464007 26268.7490188)
(25116.0504449 30125.288504 20157.8082529)
(20646.1198586 28782.5003996 14540.7199346)
(17592.020274 27889.6785062 9346.69067036)
(15699.6020846 27181.6750367 4689.98783975)
(14794.0786086 26600.9514578 -26.9514686329)
(15494.4203659 26950.6809841 -4506.94417858)
(17176.8944696 27368.9182324 -9335.96151024)
(20581.0574994 28706.5235185 -14518.7915829)
(25232.9194342 30146.5381974 -20299.6401173)
(30848.0138397 31293.7138772 -26480.827328)
(37843.2898274 32815.6898481 -32765.8326593)
(46575.2478668 34675.5058738 -39688.618858)
(39712.616394 27924.7875768 38844.8122022)
(30981.1503354 26270.4997789 31660.6909152)
(23778.9921837 24833.1473181 24828.8300215)
(18547.0448059 23735.9121805 19057.4690224)
(13873.1615448 22095.1339548 13337.5636329)
(10629.2763248 20795.7669761 8361.8082709)
(8544.86067799 19686.2636723 4045.57731846)
(8034.40716063 19577.5046944 -95.6722684411)
(8635.42462009 19852.235709 -3931.70544336)
(10651.7378376 20861.1889568 -8292.03456609)
(13763.3269395 22016.711053 -13190.9881925)
(18256.6413116 23564.2014436 -18706.85384)
(24063.3180325 25029.9803631 -25028.2982775)
(31018.5221417 26298.5285354 -31677.1366176)
(39066.9568635 27676.6924768 -38311.579348)
(34054.1010415 21855.6415974 37720.3259958)
(25336.1748101 20391.1195242 30217.3765077)
(18271.0447015 18811.8635972 23520.2040614)
(12373.4369598 17106.4000724 17156.9372368)
(8058.22837363 15636.2573537 11878.2884793)
(4937.59395689 14381.1829513 7235.61507876)
(3252.59065026 13817.2489609 3490.00185942)
(2520.50856224 13320.1955268 -14.7070479689)
(3101.77093928 13565.424663 -3345.45600066)
(4958.89724066 14398.7571343 -7268.20735945)
(7984.03270483 15610.0364445 -11709.3846487)
(12440.4874056 17116.3642211 -17265.8586267)
(18179.091274 18721.3535699 -23427.2248447)
(25285.5988616 20357.5011135 -30167.0923859)
(33653.4207463 21659.0563057 -37392.0883436)
(29526.0217886 15939.0019202 36665.1039782)
(20598.5074969 14333.8205215 28835.1970243)
(13774.6878511 13314.4094384 21966.0428112)
(7993.70098949 11785.281381 15585.2795739)
(3826.83383713 10512.4271686 10537.742048)
(734.040319764 9290.55973759 6291.98131247)
(-1056.54637477 8679.5872038 2930.5628906)
(-1706.84168365 8368.21087965 -15.7083391657)
(-1036.45913723 8732.13684795 -2928.97828801)
(809.144705803 9465.19403974 -6314.33606744)
(3812.36516319 10528.4892106 -10486.0168582)
(7967.35014451 11744.6621342 -15558.9555829)
(13676.7744104 13138.3611963 -21917.9343088)
(20501.2875032 14298.2219536 -28713.0948349)
(29287.403001 16025.9706783 -36360.3456887)
(26108.6184344 10325.5133364 35660.3481614)
(17797.0193631 9407.29334884 28138.9009497)
(10596.2222857 8356.10406994 20755.9028458)
(5004.23029756 7273.17485417 14485.3720543)
(750.597654151 6250.11217385 9361.04842545)
(-2230.02257816 5533.34439208 5541.33673091)
(-4192.08875543 4839.94440769 2414.92379772)
(-4842.227388 4662.86483461 -7.12868206732)
(-4199.29743691 4810.66711645 -2402.45335615)
(-2262.10858935 5451.94524898 -5493.61051491)
(751.594758598 6227.97262001 -9367.39995208)
(5056.45098715 7369.26612465 -14526.0773855)
(10435.7467335 8258.66224164 -20545.8072887)
(17542.1711055 9292.45108207 -27853.3445542)
(25873.027997 10129.6842378 -35440.8050705)
(23860.1251415 5144.59332391 34750.8491525)
(15657.6679581 4524.08657006 27162.0416194)
(8603.26445348 3911.50606136 19804.5792341)
(3076.57537887 3411.61716828 13507.0739724)
(-1076.73492386 2902.30920053 8625.85455528)
(-4197.20630507 2377.38059738 4831.31071772)
(-6143.60802359 2143.82137391 2156.89303317)
(-6859.73822173 1973.42675964 -1.81236175049)
(-6140.76454843 2139.127097 -2174.8398885)
(-4187.42187901 2435.23497175 -4836.51873633)
(-1080.16194436 2927.58718401 -8606.18359767)
(3152.36016068 3424.43379135 -13641.3868447)
(8594.64621776 4016.62576721 -19759.6792177)
(15669.9396036 4647.00364077 -27159.4259761)
(23841.1014629 5100.22466818 -34726.5698201)
(23262.5081119 -142.018976448 34628.8626454)
(14848.3540173 21.8465029315 26678.9637878)
(7868.80800247 58.0875697828 19332.2444073)
(2526.39496795 -17.9172999602 13326.7215885)
(-1741.4942158 40.5026563155 8271.13096356)
(-4847.03628019 -1.84301902071 4642.08498612)
(-6856.56921074 -12.1622343724 1989.99231067)
(-7682.78918068 -23.5015922014 -5.53487493152)
(-6851.92087045 23.0349211168 -2009.84332472)
(-4833.87398058 -18.2889488881 -4693.91045402)
(-1721.02116845 -28.669673449 -8321.11840271)
(2507.98099078 30.428518052 -13287.2293826)
(8175.39062302 12.6650159174 -19787.6945029)
(14828.1571951 -36.1431794613 -26657.574315)
(23283.4704022 22.4076335734 -34643.4723139)
(23945.9047243 -5189.02403232 34844.0298314)
(15623.4079232 -4536.62493287 27115.1703343)
(8520.93038136 -3961.54183785 19669.5865288)
(3124.72925993 -3378.74976957 13594.9255403)
(-1031.75872912 -2871.34565192 8751.6407767)
(-4167.7714224 -2449.5442687 4903.3619414)
(-6151.60392029 -2108.97108081 2119.28332668)
(-6855.36928216 -1981.83391661 -4.27403820598)
(-6136.95120784 -2186.97724363 -2139.89357908)
(-4169.66836263 -2443.18864811 -4903.50352768)
(-1058.80797138 -2898.6054574 -8676.78700742)
(3102.63460018 -3389.81857164 -13551.2692324)
(8670.24039151 -4063.30627167 -19867.7512699)
(15627.0985942 -4542.45097482 -27125.6455844)
(23799.8519043 -4956.47865077 -34696.7783808)
(25792.0589403 -10221.2225889 35357.6327907)
(17456.3424586 -9212.86257792 27772.416739)
(10388.138917 -8244.67164732 20484.9453405)
(4963.69696325 -7263.49636453 14411.4756477)
(754.711129888 -6259.06536419 9356.829753)
(-2262.91615633 -5433.50294091 5502.02107323)
(-4207.09452258 -4772.92057649 2406.54166697)
(-4846.29083709 -4644.19393492 0.54271455414)
(-4183.30940202 -4849.45956689 -2428.7464737)
(-2248.39552964 -5512.07718095 -5483.27470504)
(781.11826315 -6254.85431183 -9428.71931463)
(4998.01831937 -7293.5121758 -14453.422185)
(10598.5857524 -8388.72381783 -20741.3994655)
(17330.2042339 -9139.05096191 -27633.8025086)
(25791.6182889 -10403.9908063 -35294.9609911)
(29116.4363606 -15788.7842368 36316.0246707)
(21038.4241066 -14796.3269921 29160.092858)
(13574.5312679 -13087.1978367 21792.9117687)
(8103.91617466 -11897.7062269 15701.9497634)
(3819.29712758 -10482.4391937 10543.3163678)
(762.523858846 -9351.17336554 6301.65631596)
(-1048.68329588 -8695.83903452 2910.48308982)
(-1733.67114755 -8289.81478765 63.8005247991)
(-1087.42097809 -8597.43224273 -2927.35669844)
(720.819176051 -9299.52107842 -6222.62601694)
(3754.99380362 -10412.9494735 -10454.7140273)
(8146.01747574 -11890.9966214 -15787.3751485)
(13793.2904282 -13198.5835566 -22049.4259445)
(20823.2498115 -14500.5753034 -29021.9789148)
(29382.4049683 -16103.632289 -36458.8059046)
(33511.1398618 -21494.955754 37336.669443)
(25578.5961685 -20545.0548987 30456.7052668)
(18629.7990663 -19095.1811694 23826.0965208)
(12529.7714065 -17369.9977234 17193.526952)
(8003.62368811 -15634.0144909 11733.8762545)
(5129.289508 -14685.0151737 7345.55089541)
(3145.87098819 -13628.9018275 3421.30908719)
(2462.37322214 -13211.3872916 -39.5445231866)
(3030.97436101 -13426.808491 -3375.45888999)
(4986.95273032 -14456.7913078 -7267.65145438)
(8099.7197629 -15645.3751205 -11963.0583685)
(12319.7061315 -17047.4103515 -17095.9545175)
(18284.8145627 -18832.6649895 -23506.5097763)
(25399.609064 -20381.459786 -30327.7876384)
(33374.9912791 -21413.7521473 -37230.5795683)
(39956.3963108 -28138.5790424 38935.4458795)
(30733.7760102 -26230.9362666 31376.8100355)
(23972.357714 -24887.9369948 25067.8681346)
(18189.3250175 -23432.7173185 18766.0933699)
(13802.6515025 -21963.5365278 13390.2831016)
(10413.0380868 -20489.7524657 8312.60229029)
(8662.38003601 -19867.4481057 4014.8347092)
(7992.83426918 -19514.1473786 38.5706491554)
(8622.36239571 -19810.7940677 -4002.15693723)
(10549.5938661 -20710.164622 -8274.24980499)
(13634.3848884 -21850.5298878 -13140.8809967)
(18284.4547628 -23394.2971759 -18972.8160232)
(23749.6094257 -24709.7478236 -24890.9455039)
(30871.6802043 -26302.9987621 -31484.4852123)
(39351.3362489 -27888.6030815 -38450.2880909)
(46588.634285 -34569.4371604 39755.136869)
(37508.0292651 -32575.2407896 32616.1335978)
(31127.0262611 -31590.5218702 26610.8649081)
(25182.2819395 -30158.5328056 20220.257133)
(20640.0320166 -28827.9949569 14462.6804641)
(17492.7774134 -27776.0881265 9357.91029421)
(15678.1291651 -27186.9103063 4560.94121298)
(14881.3323707 -26718.8002801 144.274298495)
(15631.8402033 -27121.200878 -4528.83533873)
(17338.2328273 -27600.747992 -9267.31324374)
(20591.3440073 -28796.7374852 -14347.0824075)
(25348.6709984 -30202.5333062 -20432.6501567)
(31117.5084061 -31673.6840021 -26459.7233065)
(38052.9093132 -33101.4351532 -32754.8477821)
(46605.5677 -34736.45289 -39675.9710467)
(54817.6555019 -41263.7413686 41264.5237749)
(46598.6208647 -39776.2401198 34527.3304441)
(39452.6702673 -38668.9278604 27751.5081175)
(34169.6675404 -37843.7621368 21863.8255012)
(29153.3711448 -36397.3600988 15649.285567)
(25954.9098534 -35449.7696306 10481.0078507)
(23625.5493876 -34502.4117449 5119.23315346)
(23169.5487417 -34523.7450545 -0.0459418862848)
(23922.434016 -34838.7957113 -4928.18427027)
(26238.1687091 -35787.7018267 -10321.5755541)
(29598.6569898 -36807.8216314 -15810.8692282)
(34276.1289783 -37901.9999746 -21979.5876566)
(39749.3218122 -38729.4472768 -28155.6937574)
(46329.1261034 -39617.3945963 -34521.9843421)
(54289.5286886 -41211.104139 -40783.4841579)
(66317.6587812 44044.948043 -47393.3992276)
(60281.316608 38550.2213334 -48172.9902553)
(52120.5947041 31435.2142418 -46724.2872508)
(46144.2716937 24806.9495323 -46086.9765582)
(41296.6839223 18124.589407 -45473.8122931)
(37714.4463753 12144.5173798 -44734.349156)
(35490.6249186 6024.63660089 -44265.7924653)
(34747.9726305 -209.072736719 -44095.3560009)
(35636.7190104 -5824.61126487 -44439.9171766)
(37399.6984831 -12090.588744 -44463.4607794)
(40977.3081862 -18161.4241301 -45154.3541484)
(46041.5760579 -24739.1673564 -46038.1668027)
(52075.0324945 -31327.1247109 -46745.3768128)
(59921.7562253 -38601.6015145 -47726.2668834)
(67397.3053461 -44875.1081129 -47811.9420115)
(87194.7485903 51716.6483305 -55353.2541318)
(80486.9468746 45343.0189054 -57159.2857085)
(71442.1315862 37545.2039235 -56778.3523918)
(63676.9946401 29811.3977083 -56114.5244367)
(57743.1401439 22190.6795497 -55675.7304213)
(53248.715865 14501.3757294 -55229.8507126)
(50988.5274712 7148.02654266 -55259.4445237)
(49504.5903833 68.0441291772 -54664.6316915)
(50615.7599442 -7321.7076883 -54941.5557828)
(53172.9112112 -14425.5047474 -55200.4863825)
(58051.6446485 -22237.1991864 -55905.0776007)
(64215.6280942 -29995.9305641 -56437.0086427)
(71574.172376 -37730.8316869 -56778.6691518)
(80700.1244255 -45523.1944091 -57313.0195959)
(87164.1432203 -51659.3782778 -55378.446664)
(113625.954765 59377.1066173 -64162.8746818)
(106987.419146 52684.3353145 -67147.6153199)
(98144.3488903 44879.6534125 -68129.246626)
(89467.8340463 36259.3587654 -68433.2405198)
(81190.5683821 26814.9118894 -68079.8713921)
(76861.4268323 18409.9068567 -68582.1132004)
(72946.0096661 9216.32192981 -68225.3419531)
(72010.177188 -180.338382393 -68391.7749012)
(72907.5962766 -9209.67434589 -68224.9922031)
(76225.0015582 -18224.8793692 -68222.4367087)
(81493.5243244 -26883.1210852 -68263.3186587)
(88924.7911165 -36080.5118148 -68185.2110108)
(98339.2146489 -44881.8305592 -68269.1461749)
(107638.305295 -52806.7242874 -67480.9093881)
(113686.206861 -59413.7047997 -64175.1913529)
(148209.66742 67865.1843536 -73199.814875)
(142875.816591 60591.5376153 -78398.3051359)
(134433.585077 52810.2431883 -80692.3599672)
(123917.574528 43093.4601733 -81736.9708317)
(116667.006916 33102.6235274 -83244.0733674)
(109928.486471 21993.1087317 -83918.6963945)
(106076.835868 11190.1551 -84427.4184166)
(104656.713558 -99.6442930592 -84574.7720732)
(106541.129093 -11199.4515258 -84664.0556657)
(109407.972789 -21891.3002635 -83678.6427344)
(116328.93185 -33110.1793869 -83079.3305348)
(124529.113966 -42977.7584235 -82160.9616608)
(134286.570666 -52752.197634 -80661.7655553)
(143227.873717 -60892.0901795 -78388.1338049)
(148164.542005 -67924.86096 -73109.3208103)
(187263.897009 74963.1292037 -80944.8585859)
(189241.497139 68150.689551 -89841.4661079)
(182434.359562 60459.1491411 -93732.1629575)
(173047.780059 50083.9145624 -96761.7960259)
(163935.474145 39045.217123 -98833.6887645)
(157580.937943 26594.2525578 -100924.234713)
(153677.355671 13046.2918375 -102429.725148)
(153031.069787 -159.000226122 -103220.103841)
(154372.777786 -13807.7283717 -102604.93745)
(157633.467279 -26105.8580138 -101071.094274)
(164073.938278 -38868.1058902 -98944.5669771)
(172403.586567 -50343.8798887 -96401.1782359)
(182459.138122 -60683.0590751 -93577.2708482)
(188570.306433 -68148.9219587 -89501.990921)
(186924.98804 -74770.9204425 -80917.7119213)
(236040.756326 81510.6569637 -87987.0148617)
(244684.446411 73662.6590581 -99852.2271875)
(241882.693399 66284.2438197 -105409.928389)
(236322.99125 55988.0858083 -110296.587472)
(229212.427649 44169.9496226 -114439.855509)
(223522.190314 30192.681468 -117864.641793)
(221033.530775 15629.2188726 -120434.478773)
(220015.703981 -101.729071224 -121486.510442)
(221026.842906 -15176.0823788 -120483.576785)
(224318.9507 -30290.5260823 -118025.438386)
(228528.635678 -43823.9722499 -114319.552443)
(234541.872114 -55959.8308497 -109764.341601)
(240584.944885 -65832.0933589 -105258.647729)
(242946.390448 -73786.1396769 -99207.4574866)
(234735.334146 -81103.9055217 -88298.9952048)
(285532.92355 85888.9342848 -92785.1119124)
(304458.279425 74467.4846857 -106992.412939)
(310124.425104 66524.3956927 -114472.787739)
(310263.615478 56919.3428177 -120755.680456)
(311399.006646 44344.0340043 -127076.950097)
(313221.933687 31886.8238352 -132180.794419)
(314073.16906 16776.4048393 -135961.952656)
(315307.422523 102.976395565 -137677.305491)
(314086.016801 -16775.0156014 -135909.998333)
(313807.966929 -32414.3098524 -132061.92944)
(311130.783354 -44686.1041824 -126853.132641)
(310044.333279 -56398.9314494 -120883.499985)
(309237.105926 -65909.8529865 -114487.299158)
(302090.64087 -73792.7673119 -106370.32484)
(280616.607929 -84599.1825798 -91661.082312)
(397388.266152 88917.8643181 -104813.833562)
(395414.561131 74968.3089867 -114535.720173)
(409780.20464 65405.653142 -123394.140005)
(413520.484643 55782.139122 -129111.943248)
(422379.256645 43632.4021633 -135667.291779)
(431087.307767 29633.9331874 -141262.654294)
(432898.51175 10993.7664017 -145777.520688)
(437035.72187 -59.6755436277 -144896.905683)
(433066.467158 -11666.384334 -145676.447502)
(429410.936467 -30012.566626 -141169.734844)
(424377.390773 -44304.5209263 -135693.205303)
(419406.176196 -57074.844667 -129330.844236)
(417283.189408 -67996.8501175 -123557.541866)
(409172.660859 -77932.7651876 -114992.077407)
(426982.880809 -92875.3317475 -105764.904717)
(563398.080074 97941.5634256 -103167.604818)
(522047.440557 77236.7672297 -118103.152614)
(537156.923926 63489.1389338 -128439.470855)
(539537.350874 53444.8319511 -132696.878225)
(545128.672785 39275.1801106 -139237.154607)
(528545.395703 26195.943981 -142904.14159)
(487751.118956 18443.1242372 -141337.528058)
(480339.966522 289.4647602 -140434.432112)
(488315.178825 -18097.7627322 -141276.023667)
(528939.058773 -27477.6437021 -142258.496468)
(543261.987697 -39633.0065326 -138897.155333)
(536497.074618 -52978.9586978 -132764.065589)
(533937.196823 -63083.674212 -128364.157292)
(516229.307692 -77392.4092686 -117815.920238)
(557418.972819 -97431.0921727 -103283.175933)
(703320.462409 90865.7044633 -93837.4647355)
(649712.310871 71412.841959 -115313.862789)
(679055.922395 56744.8660793 -127852.24251)
(676187.195954 51154.7884131 -131694.618299)
(669372.570916 41307.6242957 -137361.806919)
(634210.776912 37336.6301422 -139225.060918)
(628200.405553 21483.4906275 -141677.379178)
(629045.771961 65.9418623833 -143009.466825)
(628142.385942 -21033.6272114 -141609.169357)
(634350.51992 -36690.3207387 -139265.411187)
(670496.885111 -41293.2287459 -136940.57836)
(677451.967836 -50287.053801 -132041.108897)
(680250.359232 -57982.8109224 -127116.612451)
(653364.184773 -71535.2495482 -115297.847014)
(706412.68996 -90006.930645 -94960.0018332)
(881756.978772 75946.1213326 -76644.9557868)
(838399.086261 65545.02497 -99045.7332899)
(854004.874445 52849.1678567 -118083.258118)
(837376.611724 50313.2170719 -125154.699196)
(814406.306606 46382.4808221 -129486.900348)
(799250.277434 39448.2666636 -134739.097008)
(802510.554265 21103.1154562 -137949.263426)
(800746.232695 -701.24282697 -138960.740795)
(803859.741564 -21697.5001385 -137107.509759)
(802224.176158 -41405.3093566 -132833.888826)
(814739.581772 -45284.6778909 -129306.830231)
(836050.663679 -50923.3256125 -125382.14507)
(854444.692649 -52462.7914282 -117956.846551)
(834535.976711 -66244.3816533 -99314.9719829)
(879673.01461 -75952.504728 -77066.0655914)
(1077007.8339 50365.8420788 -48199.570993)
(1050477.38709 53407.8489724 -67929.6784415)
(1031408.93924 44118.3763544 -102369.742705)
(993781.270265 48989.6554269 -110498.557791)
(981425.705749 46905.5738289 -114829.262971)
(988646.92194 36228.1139553 -119407.224694)
(995607.77944 20132.2121494 -123020.452721)
(996528.679826 155.995864254 -125735.803375)
(994589.507264 -20582.8174258 -123636.844421)
(987151.515708 -37145.9489483 -119811.308114)
(982240.140129 -46640.0247449 -114392.521366)
(993306.093399 -50545.346717 -110111.404286)
(1036870.38915 -45801.3585449 -100240.128106)
(1053477.53775 -53480.7245906 -65781.2443917)
(1074509.17304 -50987.7575166 -48572.7832741)
(1290562.97859 17061.5645646 -8085.49795829)
(1266082.95338 45130.2548888 -26836.1528681)
(1163316.6971 44916.5299654 -83227.1902213)
(1140219.98209 49198.0878879 -88931.5453132)
(1159847.23086 41867.027023 -91803.9734724)
(1181812.25979 33919.4737824 -93216.7437707)
(1202590.96069 18241.543524 -92409.37091)
(1205505.04044 1282.35067001 -94434.3246026)
(1201377.93502 -16488.659783 -93300.8762605)
(1186471.36433 -33224.5975985 -90373.0335316)
(1159518.54421 -45128.835924 -89958.9108328)
(1140971.22473 -49465.4992902 -87392.8614246)
(1169326.37974 -46154.7180237 -82685.8679673)
(1274515.78195 -41001.5765184 -21284.8009236)
(1284993.9519 -13817.0697775 -8560.37662909)
(1531471.86429 -24579.9305108 40170.8619497)