/*--------------------------------*- C++ -*----------------------------------*\
| =========                 |                                                 |
| \\      /  F ield         | OpenFOAM: The Open Source CFD Toolbox           |
|  \\    /   O peration     | Version:  2.4.0                                 |
|   \\  /    A nd           | Web:      www.OpenFOAM.org                      |
|    \\/     M anipulation  |                                                 |
\*---------------------------------------------------------------------------*/
FoamFile
{
    version     2.0;
    format      ascii;
    class       volScalarField;
    location    "0.0002049282";
    object      rho;
}
// * * * * * * * * * * * * * * * * * * * * * * * * * * * * * * * * * * * * * //

dimensions      [1 -3 0 0 0 0 0];

internalField   nonuniform List<scalar> 
29700
(
0.0243024851195
0.0250031396724
0.0262051280892
0.0273973210904
0.0285246451556
0.0294623981883
0.0303132543681
0.0306643837366
0.0303181885285
0.0294848007195
0.0285113646678
0.0274059187682
0.0262259252547
0.0249723064185
0.0237598955362
0.0216298227614
0.0223872579074
0.023504512029
0.0246005528634
0.0255975802463
0.0264061259211
0.0270386235267
0.0272899142265
0.0270488888754
0.026414863385
0.0255862260849
0.0246068779867
0.0235440365256
0.0224315996154
0.0216576599611
0.0189112976064
0.0196015052124
0.0206450985406
0.0215382841393
0.0223727891045
0.0230650477645
0.0235707627545
0.023758755948
0.0235693064929
0.0230636298311
0.0223675163384
0.0215432911743
0.0206684243401
0.0196547003338
0.0189523003462
0.0161498666356
0.0167236529104
0.0176508188546
0.0183712053513
0.0190229518176
0.0195657545028
0.0199400285336
0.020069360713
0.0199380492789
0.0195661299558
0.0190201628592
0.0183735149587
0.0176660964181
0.0167538555133
0.0161726347638
0.0134253343789
0.0138535570353
0.0145864076616
0.0151348055357
0.0155982810351
0.0159785342679
0.0162412441498
0.0163273866615
0.0162365761456
0.0159738668609
0.0155976840836
0.0151379192955
0.0145987556619
0.0138709585047
0.0134353803102
0.0108566927397
0.011121722269
0.0116194642324
0.0119762002171
0.012266888504
0.0124684389414
0.0126106368828
0.0126591266175
0.0126063018208
0.0124636921105
0.0122649518034
0.0119798821037
0.0116275215861
0.0111302227627
0.0108592607307
0.00856100403361
0.0086556339656
0.0089102712629
0.0090551817067
0.00919452977539
0.00926449258849
0.00929436259167
0.00929591853857
0.00929153960733
0.0092609347955
0.00919388480104
0.00905735988574
0.00891332872151
0.00865371376727
0.00855285663631
0.00659197377879
0.00656532682843
0.00662868142539
0.0066259963216
0.00663637944791
0.0066204613031
0.00660350911321
0.00658329903891
0.00660054139875
0.00661628273572
0.00663214224651
0.00662187541142
0.00662378521672
0.00657321962066
0.0065905071959
0.00498788320788
0.00490912426729
0.00483625500276
0.00474834831361
0.00467403838506
0.00460511828389
0.00455562348762
0.00453714544531
0.00455385798855
0.00460280114052
0.0046722959913
0.00474824797837
0.00484080940649
0.00492937617002
0.005012253265
0.00377581056969
0.00366668880496
0.00353079352671
0.00339938811384
0.00328612090397
0.00319359412221
0.00313203805505
0.00311100932202
0.00313097774352
0.00319239007783
0.00328581619332
0.0033998629605
0.00353282450999
0.00367146308073
0.00377816789649
0.00285664637469
0.00274207794665
0.00259598519039
0.00245868029511
0.00234060428533
0.00224826347254
0.00218919451616
0.00216911937786
0.00218871979312
0.00224764328795
0.00234019850801
0.00245847557329
0.00259654048074
0.00274368710412
0.00285809792786
0.00218861393941
0.00207903547026
0.00194317956257
0.00181756327565
0.00171112190964
0.00162980245056
0.00157901602598
0.00156164045648
0.00157859597756
0.00162920869057
0.00171023565334
0.0018167295612
0.00194285803541
0.00207930553677
0.00218913320463
0.00170766460067
0.00160994752756
0.00149171659231
0.00138366896885
0.00129397001214
0.00122685067348
0.00118542609795
0.0011714013058
0.00118519029194
0.00122642230224
0.00129332752656
0.00138294117721
0.00149079525876
0.0016092668769
0.0017073840525
0.00136169313881
0.0012780821793
0.00117850718428
0.00108874662044
0.00101562705819
0.000961950926165
0.000929304229765
0.000918287228914
0.000929162950032
0.000961724379249
0.00101520796014
0.00108812968643
0.00117745476121
0.00127683470032
0.00136128933434
0.00111077097574
0.00103758310508
0.000959132462125
0.000886257545362
0.000827316337379
0.000784625137937
0.000758988930686
0.000750375748478
0.000758927352097
0.000784380352562
0.000826951712901
0.000885701671519
0.000958375191955
0.00103707713163
0.00110927246897
0.000965029473922
0.000885297265568
0.000812681588308
0.000747363078692
0.00069410262898
0.000655095562467
0.000630473836559
0.000621925086329
0.00063042920317
0.000654923518561
0.00069376381322
0.000746983673989
0.000812439150294
0.00088614909407
0.000967896432947
0.000884426872399
0.000786541828566
0.000707544995498
0.000642580919835
0.000591469000551
0.000555443236548
0.000533316623886
0.00052564421293
0.000533219918013
0.000555314312815
0.000591219918968
0.00064218092343
0.000707480509498
0.00078745769229
0.000886111856987
0.000811955782443
0.000707234227373
0.000623633197237
0.000559710344525
0.000514025872955
0.000485267812255
0.000469882636977
0.000465102539278
0.000469757545084
0.000485020800143
0.000513748979306
0.000559307026266
0.000623329879498
0.000707496655527
0.000812620528122
0.00074694908854
0.000642208296548
0.000559662431222
0.000501927001084
0.000467577018881
0.000451371189667
0.000446062692186
0.000445352601023
0.000445955612412
0.000451049283157
0.000467131417759
0.000501586219017
0.000559364419835
0.000642251251464
0.000747028488618
0.000693629535745
0.000591191179977
0.000514031421493
0.000467708854321
0.000448727715968
0.000449385747933
0.000458305368405
0.000463180352889
0.000458043388787
0.00044889787894
0.000448227496363
0.000467242762806
0.000513786420061
0.000591091793907
0.000693556232917
0.000654625111623
0.000555253945615
0.000485352592579
0.00045162783352
0.000449616830772
0.000469995472507
0.000495295903829
0.000506636149988
0.000494959385509
0.000469534088208
0.000449085385252
0.000451168402936
0.000484999144114
0.00055492704004
0.000654381065897
0.000630196951129
0.000533291412124
0.000470299475634
0.000446617787625
0.000458666545653
0.000495259969104
0.000533791940867
0.000550410993233
0.000533614001416
0.000495001078804
0.000458331433476
0.000446216271112
0.000469949474406
0.000533103735838
0.000630132570717
0.00062190013713
0.000525875990073
0.000465689738202
0.000445991782444
0.000463614969418
0.00050677814204
0.000550370843007
0.00057244655322
0.000550324511779
0.000506553433882
0.000463365123998
0.000445602497973
0.000465271316746
0.000525552515795
0.00062170729421
0.000630594334275
0.000533548942956
0.000470274194368
0.000446431662578
0.000458370637151
0.000495144610946
0.000533650158985
0.000550339441267
0.000533569691235
0.000495053613676
0.000458318401679
0.000446243997058
0.000469874019634
0.000533000822542
0.000630020804181
0.000655377862061
0.000555755797779
0.000485310571556
0.000451373239439
0.000449104998506
0.000469541123726
0.000495081024623
0.000506623066116
0.000494973361397
0.000469659204059
0.00044916630812
0.000451128820685
0.000484857508205
0.000554541314305
0.00065410519912
0.000695082218755
0.000592594655303
0.000514495906131
0.000467548939202
0.000448320441868
0.000448984627817
0.000458235856203
0.000463389136062
0.000458206739082
0.000449073486254
0.000448151009342
0.000466986212595
0.000513049048782
0.000589827566129
0.000692405964874
0.000749300519662
0.000645136473957
0.000561287047949
0.000502206956969
0.000467412662264
0.000451107205885
0.000446122741737
0.000445575370567
0.000446044044268
0.000450999667742
0.000466989844
0.000501029931905
0.000557711456833
0.000639313901075
0.000744360030312
0.000816264917635
0.000712806476605
0.000627274655951
0.000561184532611
0.000514344178788
0.000485162659733
0.000469931811975
0.000465246335773
0.000469851857132
0.000484894894694
0.000513167801551
0.000557803525296
0.000619934574824
0.000701672253984
0.000807011737487
0.000891555192462
0.000794620073302
0.000712419234352
0.000644952273581
0.000592507186064
0.000555754216045
0.000533327380217
0.00052563900421
0.00053322384052
0.000554939779856
0.000590089620743
0.000639405934025
0.000701770295504
0.000777843125025
0.000876566969324
0.000973393124932
0.000891381987918
0.000815798175157
0.000748966299123
0.000694941103379
0.000655360942675
0.000630482053332
0.000621839032236
0.000630362992769
0.000654598414959
0.000692758874415
0.000744628495451
0.000807365123113
0.000876719673552
0.000955280366291
0.00111763736593
0.00104080630528
0.000959602231676
0.000886336587634
0.000827360398412
0.000784596367006
0.0007590278268
0.000750468443042
0.000759083191849
0.000784626780414
0.000827028794879
0.00088536907513
0.000957181619812
0.00103482649581
0.00110880621719
0.00136012150828
0.00127802186696
0.00117823399215
0.0010886582763
0.0010156959007
0.000962014427394
0.000929391142073
0.000918450109533
0.000929477732185
0.000962165933777
0.00101559719484
0.00108822113304
0.00117738676854
0.00127647719593
0.0013603080199
0.00170755168865
0.00160956633823
0.00149113084926
0.00138334848124
0.00129410574267
0.00122713260186
0.00118564071107
0.00117166816321
0.00118557106175
0.00122702370557
0.00129391335094
0.00138324490934
0.00149083263087
0.00160911788117
0.00170713381726
0.00218887253915
0.00207886021158
0.00194275413157
0.00181717792853
0.00171133688374
0.00163036663244
0.00157944285566
0.00156212286657
0.00157915371955
0.00163003024186
0.00171126639798
0.00181732886311
0.00194290985565
0.00207869242777
0.00218809812226
0.00285742747991
0.00274223104099
0.00259593189531
0.00245883090149
0.00234109880885
0.00224900458906
0.0021898654845
0.00216982115274
0.00218967629731
0.0022486978606
0.00234107969343
0.00245910900312
0.00259617816785
0.00274221168443
0.00285608469773
0.00377713433354
0.00366735133603
0.00353112475673
0.00339985942156
0.00328698917513
0.00319433918342
0.00313263571684
0.00311210795803
0.00313279107617
0.00319422198097
0.00328659777811
0.00339957534217
0.00353108064985
0.00366849678968
0.00377458702337
0.00498807912032
0.00490975895509
0.0048374275476
0.00474948672992
0.00467479162515
0.0046051805456
0.00455595205031
0.00453857015677
0.00455651767462
0.00460513605353
0.00467268515267
0.00474700475917
0.00483708826116
0.00492379448369
0.00500682358822
0.00659314583754
0.00656721322437
0.00663237189661
0.00662964272712
0.00663909198243
0.00662096164525
0.00660411189539
0.00658548265003
0.0066042001979
0.00661933378537
0.00663239823902
0.0066188253604
0.00661755892812
0.00656408521984
0.00658397442589
0.00856282491951
0.00866013380662
0.00891559591322
0.00906159716685
0.00920034658302
0.00926588002174
0.00929510486476
0.00929683037132
0.00929414158217
0.00926500113335
0.00919476562726
0.0090529768337
0.008902978782
0.00864159109463
0.00854113044652
0.0108602129491
0.0111286404907
0.0116280617949
0.0119870424272
0.0122752572971
0.0124702117335
0.0126107985546
0.0126610118296
0.0126114446058
0.0124710805138
0.0122713938378
0.0119790599511
0.011612399489
0.0111128046253
0.0108430182606
0.0134300994305
0.0138659429022
0.0146059966025
0.015153147148
0.015607689874
0.0159784119833
0.0162369824383
0.0163307241344
0.0162447319176
0.0159849756667
0.0156080776011
0.0151427584878
0.0145818922387
0.0138468537974
0.0134105002554
0.0161620779813
0.0167452548458
0.0176795931248
0.018389329655
0.0190304769296
0.0195673038786
0.0199420619853
0.0200760995616
0.0199455444618
0.01957840784
0.0190353244761
0.0183816642063
0.0176511952185
0.0167280639858
0.01613698684
0.0189324013788
0.0196332160034
0.0206790670224
0.0215474855732
0.0223717229578
0.023069983801
0.0235686315009
0.0237586402189
0.0235741952272
0.0230807485189
0.0223911189655
0.0215517863009
0.0206591436366
0.0196252598542
0.0188974749089
0.0216605399517
0.0224356755255
0.0235303856839
0.0246034454661
0.0255891592292
0.0264099978057
0.0270362074527
0.0272828101847
0.0270453725139
0.0264156269207
0.0256130015566
0.024616122311
0.0235140548557
0.0224634876898
0.021625701524
0.0241500194005
0.0250556592212
0.0262066161353
0.0273944878762
0.0285008380305
0.0294701982419
0.0303057405375
0.0306629304454
0.0303189669293
0.0294625505699
0.0285217513418
0.0273904341171
0.026190552481
0.0251842884874
0.024314724965
0.0157632753494
0.0163545584492
0.0170346942437
0.017535703743
0.0180188622242
0.0183848958574
0.0185942691005
0.0186625008601
0.0185944170003
0.0183856622415
0.0180078210134
0.0175330668914
0.0170308652054
0.0164461496015
0.0158903220148
0.0146151085101
0.0152783651549
0.0156509066238
0.0161248765825
0.0165820699512
0.0169493164956
0.0171947960775
0.0172845530075
0.0171936371698
0.0169488706638
0.0165735996678
0.0161232291911
0.0156455891208
0.0152503751861
0.0145830368202
0.0133166565919
0.013979823164
0.0142861038392
0.014681597204
0.015081771908
0.0154185685113
0.0156450885502
0.0157262545655
0.0156450189063
0.0154164329925
0.0150786567985
0.0146818777819
0.0142842947236
0.0139709435473
0.0133000938257
0.0118584917753
0.0124253684077
0.0127283982797
0.0130591965974
0.0133800136847
0.0136625243711
0.0138549128438
0.0139221220325
0.0138523553125
0.013659551904
0.01337737541
0.0130577360429
0.01272521818
0.0124223829876
0.0118569628956
0.0103126830404
0.0107459796792
0.0110234523008
0.0112991761778
0.0115358781327
0.0117428135447
0.0118848643609
0.0119325866113
0.0118833968433
0.0117405659149
0.0115337767019
0.0112978962692
0.0110239330302
0.0107479973866
0.0103154646114
0.00875375714505
0.00903994010499
0.00925084631024
0.00945503886266
0.0096100105592
0.00972963594588
0.00981352748316
0.00984335757512
0.00981144658206
0.00972666322794
0.00960765272885
0.00945276484018
0.00924994440312
0.00903883812525
0.00875298838383
0.00726120668225
0.00740660933765
0.00751729888966
0.00763395896971
0.00770737089132
0.00775707806485
0.00777356473221
0.00777765584441
0.00777232584056
0.0077553210458
0.00770573118569
0.00763289267225
0.00751767661961
0.00740741601962
0.00726107234277
0.00590695648269
0.00591696841833
0.00592968047502
0.00593582344357
0.00593572882503
0.00592426125932
0.00590949729695
0.0058976065423
0.00590839312429
0.00592225511091
0.00593266101522
0.00593121273864
0.00592127137255
0.00589525629524
0.00588247166407
0.00471756361818
0.0046334120301
0.00458237318186
0.00451704192111
0.00445938844939
0.00440302930177
0.00436477811883
0.00434747095886
0.00436357061508
0.00440140384456
0.00445717798838
0.00451507436888
0.00458068212388
0.00463449769989
0.00472400388271
0.00374777570272
0.00361864027549
0.00351685366176
0.00341218671403
0.0033190583564
0.0032407524115
0.00318926582404
0.00317037893059
0.00318866645911
0.00323997665652
0.0033181551118
0.00341125281963
0.00351633196343
0.00361972736233
0.00374673262294
0.0029632280293
0.00282336086367
0.00269979430156
0.00258149301909
0.00247711602034
0.00239395314233
0.00234027317966
0.00232165588026
0.00234006489613
0.00239362610001
0.00247669340064
0.00258105853774
0.0026997702225
0.00282427429333
0.00296348423369
0.00235726116874
0.00221864531834
0.00209319242366
0.00197739861975
0.00187755321017
0.0018000984558
0.00175110444265
0.00173426694744
0.00175096311936
0.00179999446479
0.00187727734844
0.00197707263816
0.00209304101279
0.00221869426213
0.00235736510099
0.0018978111783
0.00176869313978
0.00165241273822
0.00154797769107
0.00146009979538
0.00139328005632
0.00135145886203
0.00133722008862
0.00135138255461
0.00139306503023
0.00145978520705
0.00154773144341
0.00165229761271
0.00176872439487
0.00189783414971
0.00155319937714
0.00143793094712
0.0013353924204
0.00124573561898
0.00117177722077
0.00111645907486
0.00108221023096
0.00107057460021
0.00108212749152
0.00111625966194
0.00117135146168
0.00124527222739
0.00133493071742
0.00143731214746
0.00155234894568
0.00129822929412
0.00119826053842
0.00110848063639
0.00103363823484
0.000972998169783
0.000928420718644
0.000900996413515
0.000891767497863
0.00090089534475
0.000928154403613
0.000972476676086
0.00103287116456
0.00110757027064
0.00119736798874
0.00129890315823
0.00113238166397
0.00104004172821
0.0009597618572
0.000891722005918
0.000837025964052
0.000797480383021
0.000774563468021
0.000766950527029
0.000774473750857
0.000797201466533
0.000836499704208
0.000890956316034
0.000958821238211
0.00103871160549
0.00113038408009
0.00103975115397
0.000943682124749
0.000860946083817
0.000791345405421
0.000736547645583
0.000697581761761
0.000674709571322
0.000667077762473
0.000674639397734
0.000697393124547
0.000736141132203
0.000790659497054
0.000860224703986
0.000942981593926
0.0010390185165
0.000959000910803
0.000860403993254
0.000773999580243
0.000703874451979
0.000651459098837
0.00061629192688
0.000596429858767
0.000589962857749
0.000596369049
0.000616131797068
0.000651145066717
0.000703385152368
0.000773651059548
0.000860503196185
0.000959314672256
0.000891078747163
0.000790701907112
0.000703608258325
0.00063574120926
0.000589565292978
0.000563336520656
0.000551386367327
0.000548046421207
0.000551286273026
0.000563080907691
0.000589236655083
0.000635320199743
0.000703394251707
0.000790866773421
0.000891220918588
0.000836783881157
0.000736142899727
0.000651204557709
0.000589529409577
0.000554987813281
0.000542602421443
0.00054206682008
0.000543241762335
0.000541872292335
0.000542196654561
0.000554482829148
0.000589092863519
0.000650969480285
0.000736124698724
0.000836619447511
0.000797618306614
0.000697469399389
0.000616187140072
0.000563425593375
0.000542728206517
0.000546210107533
0.000558702026091
0.000564989088237
0.000558416156656
0.000545646199986
0.000542176462078
0.000562962214921
0.000615912917934
0.000697300636274
0.000797411538073
0.000774874034268
0.000674800715892
0.00059654419292
0.000551654880385
0.000542448345277
0.000558950134317
0.000582062196194
0.000592617882226
0.000581778835962
0.000558459818197
0.000541906696356
0.000551190845713
0.000596250000694
0.000674492249379
0.000774442911479
0.000767339635645
0.000667372545512
0.000590293227225
0.000548496243579
0.00054368101101
0.00056523771644
0.000592623163749
0.000606186986572
0.000592479663069
0.000564974852319
0.00054326173222
0.000548038180159
0.000589967839923
0.00066707393943
0.000767017342448
0.000775070202083
0.000675109266602
0.000596769402399
0.000551699697691
0.000542270118388
0.00055857170089
0.000581766043585
0.000592365149007
0.00058170122459
0.000558467779065
0.000541942829427
0.000551238055598
0.00059630988447
0.000674635658567
0.000774617328748
0.000798075891186
0.000698178993172
0.000616770424744
0.00056356827985
0.000542533262961
0.000545791289088
0.000558385062149
0.000564839670489
0.000558383444695
0.000545702172723
0.000542161326583
0.000562933241348
0.000615695896747
0.000697174883812
0.000797555939575
0.00083722733423
0.000737355890573
0.000652470687598
0.000590077811143
0.000554926940945
0.000542340821271
0.000541927585058
0.000543229517277
0.000541878263781
0.000542164150407
0.000554312057704
0.00058861004515
0.000650091371248
0.000735382101065
0.000836641383146
0.000891715309582
0.000792476410429
0.000705700995193
0.000637071752196
0.0005899575668
0.000563302821803
0.000551336503035
0.00054806640419
0.000551278243072
0.00056294082479
0.000588605859377
0.000634015298936
0.000701553498121
0.000789339536402
0.000890754102522
0.000959318819132
0.000861915574057
0.000776141769045
0.000705453985955
0.000652204047101
0.000616527452011
0.000596455642927
0.000589974698363
0.000596297484373
0.000615743188118
0.000650141557113
0.00070159584113
0.000771423358675
0.000859040862112
0.000958822218585
0.00103808355775
0.000943061374803
0.000861430981826
0.000791968633198
0.00073689523588
0.000697729244101
0.000674716498984
0.000667071897522
0.000674594076193
0.000697115792676
0.000735392842355
0.000789301138048
0.000859045283465
0.000943831952521
0.00104187693394
0.00112880140712
0.00103737146076
0.000958627985676
0.000891107030344
0.000836610179473
0.000797366097846
0.000774593058346
0.000767018841639
0.000774567638026
0.000797379706656
0.000836589631491
0.00089081142923
0.000958904325047
0.00104195974107
0.00113687974639
0.00129247049734
0.00119619366282
0.00110828534326
0.00103340109536
0.000972754087257
0.000928277353871
0.000901087691421
0.000892052254976
0.000901280210835
0.000928668905592
0.000972972615092
0.0010332940601
0.00110820718945
0.00119843622869
0.00129647434884
0.00155473897832
0.00143766044154
0.00133541503848
0.00124589388829
0.00117190123832
0.00111658333258
0.00108244158178
0.00107097362616
0.00108262530172
0.00111675761037
0.00117178607258
0.00124534919522
0.00133475159743
0.00143683798311
0.00155137086423
0.00189797224526
0.0017688646598
0.00165273487387
0.00154832853232
0.00146048340079
0.00139370220701
0.00135190393103
0.00133776561307
0.00135195963629
0.00139367239044
0.00146020636573
0.00154776298899
0.00165186888123
0.00176784656748
0.00189662922831
0.00235761138031
0.00221905366516
0.00209378760457
0.00197800257448
0.00187823352386
0.00180086792333
0.00175170996813
0.00173485685156
0.00175156561
0.00180053851244
0.0018777547097
0.00197715353228
0.00209257455563
0.00221762901151
0.00235596269406
0.00296374904358
0.00282386524182
0.00270056118093
0.002582355255
0.00247805839316
0.00239486205894
0.00234104401252
0.0023223075245
0.00234074688375
0.00239435972571
0.00247722778032
0.00258114260109
0.00269914048833
0.00282299288885
0.00296189361328
0.00374810665499
0.00361917659619
0.00351765655276
0.00341322074682
0.00332038804687
0.00324188960397
0.00318987188317
0.00317093124859
0.00318959695356
0.00324103200866
0.00331898567331
0.00341135927151
0.00351537400724
0.0036177833121
0.00374431160587
0.00471834591894
0.00463437239743
0.00458375026773
0.00451863960135
0.00446092150113
0.00440432944672
0.00436571177132
0.00434868168986
0.00436536314414
0.00440324993945
0.00445866339993
0.00451518610549
0.00457903801305
0.00463154639657
0.00471948996161
0.00590841454912
0.00591945233557
0.00593273188613
0.00593915217249
0.00593880137784
0.00592700373338
0.00591200349749
0.00590002589581
0.00591116249445
0.00592493704566
0.0059347452376
0.00593139507152
0.0059188385141
0.00589130771959
0.00587646940828
0.00726253048292
0.0074096681836
0.0075218562516
0.00763860638781
0.00771213382875
0.00776113543109
0.00777769152218
0.00778169804819
0.00777702454128
0.00776038889055
0.00770965088492
0.00763469532311
0.00751488412068
0.00740068617041
0.00725205081685
0.00875596077461
0.00904377732282
0.00925785499362
0.00946287653429
0.00961657586166
0.00973388402338
0.00981747031344
0.00984873521742
0.00981827811359
0.00973503146662
0.00961503057772
0.00945816730109
0.00924769149449
0.00903064841565
0.00874150648792
0.0103162231342
0.0107522693101
0.0110350340109
0.0113108282313
0.0115429684397
0.0117461047876
0.0118881051524
0.0119376009469
0.011890126665
0.0117505112668
0.0115444693836
0.0113087191389
0.011027424918
0.010742094281
0.0103029348806
0.0118643300324
0.0124372543358
0.0127443660028
0.0130700553137
0.0133846926458
0.0136644649126
0.013856820049
0.013926846019
0.0138593264212
0.0136716969102
0.0133918458376
0.0130720852022
0.0127455820094
0.0124324307611
0.0118544071909
0.013321225598
0.0139998526409
0.0143053078195
0.0146903356791
0.0150825900169
0.0154181024362
0.0156451136141
0.0157274001041
0.0156483211416
0.0154260167926
0.0150960277871
0.0146989387552
0.0143177093372
0.0140022145425
0.0133270992912
0.0146174965664
0.0153091350093
0.0156638514749
0.0161281741963
0.0165740469093
0.0169490991115
0.0171921045725
0.0172844500556
0.0171976667135
0.0169493166245
0.0165972982268
0.0161403096632
0.015690939431
0.0153155687843
0.014654565338
0.0157746491001
0.0163897452216
0.0170283566204
0.0175347435665
0.0180064178846
0.0183843132916
0.0185914421419
0.0186620878598
0.0186000253785
0.0183735418903
0.0180341533331
0.0175408137129
0.0170328446926
0.0162652732137
0.0157877476858
0.0131996323396
0.0135778827771
0.0139358556449
0.0142280914206
0.0144740094575
0.0146537813924
0.0147498167822
0.0147825710096
0.0147478296284
0.0146503555858
0.0144692904955
0.0142275206603
0.0139403005416
0.0136121399375
0.0132710642574
0.0124188374947
0.0128406026353
0.0131557784121
0.0134588125441
0.0137230665434
0.0139284385317
0.0140536110895
0.0140966043173
0.0140512418982
0.0139250088494
0.0137182032616
0.0134560773494
0.0131566533733
0.0128466385753
0.0124290423028
0.0115083224466
0.0119346943664
0.0122179939639
0.012507424699
0.0127667246123
0.0129766704719
0.0131101769791
0.0131557286906
0.0131078638836
0.0129727902501
0.012762768436
0.0125040806519
0.0122147578942
0.0119313503211
0.0115024350508
0.0104585971696
0.0108442732121
0.0111056097168
0.0113719110981
0.0116046403109
0.0117992333881
0.0119260421296
0.0119696825962
0.0119242417103
0.0117961193631
0.011601256261
0.0113681799436
0.0111009589102
0.0108396137641
0.0104547037473
0.00931568044751
0.00963119933565
0.0098584062248
0.0100894020455
0.0102796120911
0.0104371136959
0.0105401644514
0.0105748966022
0.0105385001368
0.0104344362472
0.0102761798549
0.0100861731653
0.00985515659122
0.00962887711175
0.0093149213314
0.00812702881283
0.00835408492465
0.00852375410655
0.0087006944949
0.0088357467696
0.00894418817408
0.00901306312176
0.00903634500402
0.00901140239542
0.00894130063508
0.00883273579019
0.00869735711809
0.00852110964328
0.00835186851325
0.00812616337608
0.00694120801441
0.00707288858141
0.0071645984712
0.00727248171421
0.00734145947437
0.00739837131456
0.00742636421405
0.00743489813185
0.00742495841897
0.00739613614221
0.00733863654552
0.0072695993526
0.00716242158851
0.00707161431584
0.00693977986522
0.00581556302448
0.00584505184245
0.0058549749831
0.0058744223713
0.00587718652434
0.00587977275024
0.00587520353051
0.00587366295622
0.00587442385178
0.00587787486583
0.00587426503161
0.0058701526134
0.00584936914951
0.00583420245735
0.00580929236239
0.0047975997166
0.00473500859192
0.00468174705729
0.004627938603
0.00457704269189
0.00453213943886
0.00450195803249
0.00449052045766
0.00450109145834
0.00453052877618
0.00457468143278
0.00462535727901
0.00467895266431
0.00473168048435
0.00479978374615
0.00391887018986
0.00380125157914
0.00370247571923
0.00360471420965
0.00351842629425
0.00344640032899
0.00340024643264
0.00338355042126
0.00339949442522
0.00344542301909
0.00351718337015
0.00360350563463
0.00370147150955
0.00380108201012
0.00391947738871
0.00318110224083
0.00304298528158
0.00292089504244
0.00280498326237
0.00270375873624
0.00262260850355
0.00257071787527
0.0025526136542
0.00257030944083
0.00262194635126
0.0027030356672
0.00280452787236
0.00292090539253
0.0030438463365
0.00318153590758
0.00258644008747
0.00244602651733
0.00231873897475
0.00220138197136
0.0021005316718
0.0020218318586
0.00197198026652
0.00195480727485
0.00197173346857
0.00202148208212
0.00210008476709
0.00220111634268
0.00231875851747
0.00244656567032
0.00258684690957
0.00212115634001
0.00198776095266
0.00186657243457
0.00175760614646
0.00166581540354
0.00159571077127
0.00155172533019
0.00153673218249
0.00155161887782
0.00159550402725
0.00166556529893
0.00175744869685
0.00186665989157
0.00198809415661
0.00212141629852
0.00176330256811
0.00164163310102
0.00153236158717
0.0014363986079
0.00135725939084
0.00129789631042
0.00126104612334
0.00124853737141
0.00126094885121
0.00129770545313
0.00135701296597
0.00143621423142
0.00153231723025
0.00164150237251
0.00176297136566
0.00149521908165
0.00138602725101
0.00128831453385
0.00120598682202
0.00113963547622
0.0010905654958
0.00106026245581
0.00105002223494
0.00106014890496
0.00109031529555
0.00113924838933
0.00120562854252
0.00128811381667
0.00138598974546
0.00149625470157
0.00132319014218
0.00121806426361
0.00112501682669
0.00104799940262
0.000987308630621
0.000943267197539
0.000916923542829
0.000908207253025
0.000916758967153
0.000942913878448
0.000986814273973
0.00104748039131
0.00112456425675
0.00121744908131
0.00132317634141
0.00121867369973
0.00111084590139
0.00101621110972
0.000937213841145
0.000875755843333
0.000832181294344
0.000806739776193
0.000798427280301
0.000806580816825
0.000831841617773
0.000875243029125
0.000936600537339
0.00101555469366
0.00110976712308
0.00121712806819
0.00112543048965
0.00101629044431
0.000921378705744
0.000842566257841
0.0007825006857
0.000741619576323
0.000718494220635
0.000711029577477
0.000718362081184
0.000741343921866
0.000782079865342
0.000842030890968
0.000920867021297
0.00101562413806
0.00112446724236
0.00104811663984
0.00093709156852
0.000842443025925
0.000765888266517
0.000710610856093
0.000676461014587
0.00065927000273
0.000654081897396
0.000659137850651
0.000676250633643
0.000710281106439
0.000765444599875
0.000842095402452
0.000936814567074
0.0010476680428
0.000987529853267
0.000875704147098
0.00078240015571
0.000710569964265
0.000664185960596
0.000641153725043
0.000633359820353
0.00063191307447
0.000633179790861
0.000640900490102
0.000663861615553
0.00071014708484
0.000782059927763
0.000875455887215
0.000987143900722
0.000943716352061
0.000832372985335
0.00074165088563
0.000676464727508
0.000641121296965
0.00063135260918
0.000634578404487
0.000637472210272
0.000634362733223
0.000631036732066
0.000640741344573
0.000676028018015
0.000741312884059
0.000832127250548
0.000943390887447
0.000917484376912
0.00080704761631
0.000718576975711
0.000659268853987
0.000633380407414
0.000634682847205
0.000646926624977
0.000653361917839
0.000646701782824
0.000634279210943
0.000632908815172
0.000658841433675
0.00071828152597
0.000806724815615
0.00091712212184
0.00090883476954
0.000798809839359
0.000711171257667
0.000654156361309
0.000632049463973
0.000637678931576
0.000653451262779
0.000662373204927
0.000653289300821
0.000637297576589
0.000631573138814
0.00065380103928
0.000710927650255
0.000798495874718
0.000908464149408
0.00091750101488
0.000807138448287
0.000718715285759
0.000659399099549
0.00063345625391
0.000634553806097
0.000646697974762
0.000653241510856
0.000646649696605
0.000634237996526
0.000632951237151
0.000658912514378
0.00071833073358
0.000806805564179
0.000917198862259
0.000943728978936
0.000832649648813