/*--------------------------------*- C++ -*----------------------------------*\
| =========                 |                                                 |
| \\      /  F ield         | OpenFOAM: The Open Source CFD Toolbox           |
|  \\    /   O peration     | Version:  2.4.0                                 |
|   \\  /    A nd           | Web:      www.OpenFOAM.org                      |
|    \\/     M anipulation  |                                                 |
\*---------------------------------------------------------------------------*/
FoamFile
{
    version     2.0;
    format      ascii;
    class       volTensorField;
    location    "0.0002049282";
    object      stressWall;
}
// * * * * * * * * * * * * * * * * * * * * * * * * * * * * * * * * * * * * * //

dimensions      [1 -1 -2 0 0 0 0];

internalField   uniform (0 0 0 0 0 0 0 0 0);

boundaryField
{
    farfield
    {
        type            calculated;
        value           uniform (0 0 0 0 0 0 0 0 0);
    }
    wall
    {
        type            calculated;
        value           nonuniform List<tensor> 
1350
(
(113.108513901 57.4905591794 61.9647040434 57.4905591794 112.074449737 32.1425640211 61.9647040434 32.1425640211 116.68193023)
(100.355936116 48.5913553163 60.7264422856 48.5913553163 99.505877504 31.1079483824 60.7264422856 31.1079483824 112.88358107)
(86.8064221304 38.9201597228 57.8340464778 38.9201597228 85.7645447657 28.0302806036 57.8340464778 28.0302806036 108.178407649)
(74.5956075378 29.0962421343 54.444594437 29.0962421343 73.103761965 23.908500057 54.444594437 23.908500057 104.653697056)
(66.4653528715 20.7939024867 52.2972648433 20.7939024867 63.3372736452 18.9295065348 52.2972648433 18.9295065348 102.876677737)
(61.1485534251 13.6197615373 50.826569801 13.6197615373 55.9686843965 13.4512077825 50.826569801 13.4512077825 102.017458326)
(57.5016525924 6.45871151893 49.5198838797 6.45871151893 51.2561951918 6.75729866087 49.5198838797 6.75729866087 101.331659282)
(56.3592130295 0.265350196342 49.1224344331 0.265350196342 49.5961266857 0.235941528974 49.1224344331 0.235941528974 101.161680984)
(56.9886424621 -6.34013377244 49.0499014663 -6.34013377244 51.2309920667 -6.63913445981 49.0499014663 -6.63913445981 100.894496375)
(60.6779861452 -13.4741798053 50.4141259891 -13.4741798053 55.7475411537 -13.3624859675 50.4141259891 -13.3624859675 101.572376807)
(66.3600443289 -20.900648257 52.1330472421 -20.900648257 63.3523407776 -19.0134335889 52.1330472421 -19.0134335889 102.617523864)
(75.2607813697 -29.4066944433 54.8561134499 -29.4066944433 73.3039222911 -24.0725628353 54.8561134499 -24.0725628353 104.875974485)
(86.5897711133 -38.4710959847 57.9236914074 -38.4710959847 85.2287255921 -27.9511451934 57.9236914074 -27.9511451934 108.288596862)
(99.4709897219 -48.1825192823 60.2918826918 -48.1825192823 98.979260741 -30.7189101183 60.2918826918 -30.7189101183 112.46416709)
(115.917786312 -59.1207320299 63.1323684208 -59.1207320299 114.321911365 -33.2504155703 63.1323684208 -33.2504155703 118.378036621)
(154.874956271 72.1702850254 77.5406724587 72.1702850254 136.470522166 34.1354964157 77.5406724587 34.1354964157 141.460743009)
(137.710532107 60.8072502676 76.9919962784 60.8072502676 120.948645017 33.1905409822 76.9919962784 33.1905409822 136.904887039)
(121.928541582 49.8072715185 75.0631300581 49.8072715185 106.310963939 30.7326492963 75.0631300581 30.7326492963 132.000719795)
(107.283097263 38.4946171491 72.3289262225 38.4946171491 92.1066839983 26.6948746601 72.3289262225 26.6948746601 127.994172359)
(95.9032379668 27.7288848126 69.9967564737 27.7288848126 80.0812494655 21.374852738 69.9967564737 21.374852738 125.438537288)
(87.616198949 17.639393725 67.992691003 17.639393725 71.0081001213 14.7638771417 67.992691003 14.7638771417 123.853078952)
(81.6137844407 9.11021514278 65.7024580392 9.11021514278 65.1722116377 8.03576660533 65.7024580392 8.03576660533 122.087553107)
(81.3392380578 -0.00721483611888 66.3743580074 -0.00721483611888 63.61931926 0.00822958791648 66.3743580074 0.00822958791648 122.694357497)
(82.7236611844 -8.76351449758 66.6460529016 -8.76351449758 65.5471394271 -7.68688228897 66.6460529016 -7.68688228897 122.867322143)
(88.2094589203 -17.9504521725 68.4008007067 -17.9504521725 71.1793695649 -14.9587302259 68.4008007067 -14.9587302259 124.091687668)
(96.2325147369 -27.6601815939 70.2939955123 -27.6601815939 80.2686551205 -21.271213791 70.2939955123 -21.271213791 125.725082336)
(107.371176215 -38.0810064554 72.594196371 -38.0810064554 91.9722979493 -26.4783092836 72.594196371 -26.4783092836 128.340431456)
(122.859138231 -50.0914578309 75.584719543 -50.0914578309 106.382748691 -30.8634479642 75.584719543 -30.8634479642 132.320586727)
(138.939566361 -61.3820303612 77.5288753084 -61.3820303612 121.944855362 -33.41374219 77.5288753084 -33.41374219 137.527455847)
(153.68854971 -71.4198704607 77.1153440198 -71.4198704607 136.382951904 -33.76132205 77.1153440198 -33.76132205 141.528532121)
(210.696769239 88.5714822265 95.4416988121 88.5714822265 168.564272974 34.6914188234 95.4416988121 34.6914188234 173.879133925)
(193.975454665 77.4084392284 97.3455727411 77.4084392284 152.063794092 34.4388308099 97.3455727411 34.4388308099 168.451136396)
(173.923187385 63.8095880668 96.6088946126 63.8095880668 134.929173905 32.48799092 96.6088946126 32.48799092 162.77356238)
(155.901447475 50.1371767427 94.931929183 50.1371767427 119.106730855 28.7235566613 94.931929183 28.7235566613 158.319320618)
(141.68201148 37.3132471011 93.1846125852 37.3132471011 105.650716914 23.5344390084 93.1846125852 23.5344390084 155.134219003)
(130.434459171 24.4929199322 91.3495422424 24.4929199322 94.4290072665 16.9037934476 91.3495422424 16.9037934476 152.9837085)
(124.317908068 11.6736356937 90.675433117 11.6736356937 87.9474846493 8.45313250081 90.675433117 8.45313250081 152.285575974)
(121.597101611 -0.182752999096 89.9334060681 -0.182752999096 85.6054540181 -0.112782740523 89.9334060681 -0.112782740523 151.708538094)
(124.15565569 -12.1108104597 90.5197506382 -12.1108104597 87.9398621959 -8.73274946247 90.5197506382 -8.73274946247 152.128582838)
(130.268467096 -24.3044603376 91.3008202333 -24.3044603376 94.5053391225 -16.7537375181 91.3008202333 -16.7537375181 152.985423172)
(141.727682646 -36.6008887344 93.5004029969 -36.6008887344 104.972159884 -23.3529498924 93.5004029969 -23.3529498924 155.435592801)
(156.68234029 -50.3144294223 95.3262263687 -50.3144294223 119.588535837 -28.5643620595 95.3262263687 -28.5643620595 158.658278999)
(173.429819945 -63.5656711612 96.3938717849 -63.5656711612 135.06006399 -32.2973472901 96.3938717849 -32.2973472901 162.781228657)
(194.292065998 -77.2267358657 97.6721229136 -77.2267358657 151.747152141 -34.5046627005 97.6721229136 -34.5046627005 168.51812604)
(211.637409291 -89.0585343995 95.5857659772 -89.0585343995 169.02169794 -34.4448596983 95.5857659772 -34.4448596983 174.010320046)
(289.146301642 107.928276784 116.889305945 107.928276784 211.867062092 32.7488308982 116.889305945 32.7488308982 217.339510539)
(273.047951208 95.3058383251 122.483055924 95.3058383251 193.784341928 33.1565227881 122.483055924 33.1565227881 211.375568125)
(252.501314689 81.6468465619 123.783815013 81.6468465619 176.572020736 32.2230340078 123.783815013 32.2230340078 204.585014712)
(231.36951488 65.5697088818 123.938469587 65.5697088818 159.410845012 29.104772982 123.938469587 29.104772982 199.33039252)
(213.36722985 48.8916907994 123.648967874 48.8916907994 143.488888967 24.3488286708 123.648967874 24.3488286708 195.586620112)
(199.923055958 32.575764367 123.077802354 32.575764367 131.4990122 17.5052672545 123.077802354 17.5052672545 193.171438828)
(190.532133364 16.2406218116 122.176914535 16.2406218116 123.419152044 9.20273514415 122.176914535 9.20273514415 191.722416685)
(186.742826668 -0.099175356739 121.560222876 -0.099175356739 120.793959208 -0.0812346539094 121.560222876 -0.0812346539094 191.16509694)
(189.350082201 -16.0362751659 121.58906783 -16.0362751659 123.20098421 -9.12928236276 121.58906783 -9.12928236276 191.447028687)
(198.509973016 -32.5025273707 122.391982954 -32.5025273707 131.561515441 -17.4685248721 122.391982954 -17.4685248721 192.86861176)
(212.177979278 -49.0912018991 122.918371402 -49.0912018991 143.546190727 -24.4020098985 122.918371402 -24.4020098985 195.168665036)
(229.79484632 -65.0773136614 123.331238073 -65.0773136614 158.940023097 -29.0797664508 123.331238073 -29.0797664508 199.046071859)
(250.88784986 -81.0677679949 123.240483251 -81.0677679949 176.475407093 -31.9648941788 123.240483251 -31.9648941788 204.490737411)
(272.889976618 -95.2634007946 122.345490553 -95.2634007946 194.050039088 -33.091983332 122.345490553 -33.091983332 211.521100296)
(288.829644205 -107.994840521 116.466325519 -107.994840521 211.898017395 -32.8585872377 116.466325519 -32.8585872377 217.06764759)
(394.965770321 129.990412106 139.920016483 129.990412106 270.793142357 28.2018501196 139.920016483 28.2018501196 275.394563184)
(384.309625202 116.934128393 150.360088246 116.934128393 253.182890224 28.745008355 150.360088246 28.745008355 269.165639595)
(363.148112193 101.066584737 155.015162559 101.066584737 234.973902352 28.6076931883 155.015162559 28.6076931883 261.159288399)
(339.137859918 82.9080513107 157.227936644 82.9080513107 217.495775149 26.6109848627 157.227936644 26.6109848627 254.574554414)
(318.394401503 62.7285208878 159.134162933 62.7285208878 201.897001736 22.2659881654 159.134162933 22.2659881654 250.090947632)
(303.748592466 42.5739688605 160.768591371 42.5739688605 188.958016244 16.4136173092 160.768591371 16.4136173092 247.166814924)
(294.134182177 21.0628016529 161.814042514 21.0628016529 179.940137008 8.59894728261 161.814042514 8.59894728261 245.719554462)
(291.998725532 0.273868586602 162.610308358 0.273868586602 177.311604713 0.109915057293 162.610308358 0.109915057293 245.530983641)
(295.171073977 -20.9240173132 162.243257058 -20.9240173132 179.970460848 -8.58611968027 162.243257058 -8.58611968027 245.918306723)
(304.809174504 -42.257848068 161.262566082 -42.257848068 188.298067592 -16.457317913 161.262566082 -16.457317913 247.346814432)
(319.862297483 -62.8296997631 159.638415641 -62.8296997631 201.384016579 -22.4547249399 159.638415641 -22.4547249399 250.175847375)
(339.10246707 -82.9925235837 157.07436165 -82.9925235837 217.576511682 -26.5256782758 157.07436165 -26.5256782758 254.52094478)
(362.579860912 -101.105636943 154.680272986 -101.105636943 235.48304552 -28.2831489637 154.680272986 -28.2831489637 261.242593965)
(382.392229482 -116.053751425 150.176137979 -116.053751425 252.791836607 -28.6208583693 150.176137979 -28.6208583693 269.087469389)
(392.974988339 -129.487681208 139.511233142 -129.487681208 270.878412263 -27.8102964562 139.511233142 -27.8102964562 275.456796826)
(532.570555386 152.145624844 165.464812309 152.145624844 350.881948207 18.554408399 165.464812309 18.554408399 354.808330862)
(532.544904944 137.938893898 180.860253093 137.938893898 334.569773193 19.5075168281 180.860253093 19.5075168281 347.726078658)
(517.482731846 121.9937286 189.090605828 121.9937286 319.528875642 19.7440460805 189.090605828 19.7440460805 339.389311168)
(497.528086577 100.379776802 196.238832278 100.379776802 303.364099948 18.7061799783 196.238832278 18.7061799783 332.266499304)
(479.705965796 77.8650519327 202.133732415 77.8650519327 289.815276756 16.1850126016 202.133732415 16.1850126016 327.232124588)
(465.636611965 54.3522075441 206.223095489 54.3522075441 278.331159948 12.2956010945 206.223095489 12.2956010945 323.293564336)
(457.101521745 26.9960179985 209.593752622 26.9960179985 270.957066189 6.27847607119 209.593752622 6.27847607119 321.35927615)
(452.989192366 -0.150100674873 210.546676294 -0.150100674873 267.899447343 -0.078382519974 210.546676294 -0.078382519974 320.891399936)
(455.96116364 -27.3087948812 209.242970579 -27.3087948812 270.236064073 -6.50066683394 209.242970579 -6.50066683394 321.211569629)
(465.195104461 -53.7872520928 206.231839251 -53.7872520928 277.878427991 -12.2686130394 206.231839251 -12.2686130394 323.313092229)
(479.091715667 -78.241331884 201.717090979 -78.241331884 289.459859277 -16.3582598152 201.717090979 -16.3582598152 327.010436595)
(496.79795169 -101.197314302 195.504088797 -101.197314302 303.464828203 -18.718664736 195.504088797 -18.718664736 331.936781476)
(516.653005674 -121.184003224 189.092220953 -121.184003224 318.732201109 -19.7920688464 189.092220953 -19.7920688464 339.122406638)
(532.669753856 -137.083740537 181.220729013 -137.083740537 335.057686956 -19.1227353007 181.220729013 -19.1227353007 348.427805561)
(533.417704223 -152.656453012 165.031489142 -152.656453012 352.189690566 -19.3078767356 165.031489142 -19.3078767356 355.746293134)
(713.711982417 176.727153573 190.421316854 176.727153573 458.27359228 4.61419894867 190.421316854 4.61419894867 459.855395293)
(731.136858044 156.851240194 211.940452423 156.851240194 447.969735454 2.96595187007 211.940452423 2.96595187007 455.011248927)
(726.059658292 137.860019089 225.479555199 137.860019089 437.778935103 3.36761720916 225.479555199 3.36761720916 447.431275355)
(720.697645832 117.128003142 237.105431993 117.128003142 429.313295532 4.08986029167 237.105431993 4.08986029167 441.535220215)
(714.569091616 91.1655986023 248.031496405 91.1655986023 422.642545615 3.27482655368 248.031496405 3.27482655368 436.78612443)
(708.506366104 65.2480570771 256.183163696 65.2480570771 416.519051924 3.08875803396 256.183163696 3.08875803396 432.940671761)
(706.714398961 32.3370132143 262.870053725 32.3370132143 413.450132182 1.19919717239 262.870053725 1.19919717239 430.931332564)
(707.863934356 -0.288328957024 265.567032609 -0.288328957024 413.130954624 -0.0610001734081 265.567032609 -0.0610001734081 430.760713291)
(707.631066541 -33.0721756186 262.878951866 -33.0721756186 414.071009589 -1.30570897396 262.878951866 -1.30570897396 430.958181503)
(710.529933963 -64.7568016769 256.570185364 -64.7568016769 417.17781149 -2.93922733348 256.570185364 -2.93922733348 433.088596386)
(714.048838601 -92.2504514743 247.567140677 -92.2504514743 422.271369603 -3.6206208477 247.567140677 -3.6206208477 436.539718055)
(718.916614754 -116.832431914 237.006360013 -116.832431914 428.735261075 -4.14070817209 237.006360013 -4.14070817209 441.315594978)
(726.297094805 -136.730249528 225.812948503 -136.730249528 437.106803899 -2.94619779602 225.812948503 -2.94619779602 447.123810988)
(722.307994507 -154.306038204 210.506562414 -154.306038204 443.935562939 -2.79539698316 210.506562414 -2.79539698316 451.961211442)
(698.829380001 -173.250967203 186.927210221 -173.250967203 449.869615688 -2.231491232 186.927210221 -2.231491232 451.268290059)
(1008.33676547 198.734389302 224.1119791 198.734389302 593.418321218 -23.3867271368 224.1119791 -23.3867271368 590.268503781)
(1010.97564701 175.059056942 245.155945493 175.059056942 602.586257937 -22.3632265616 245.155945493 -22.3632265616 598.829473321)
(1033.43893688 156.617967292 265.147893566 156.617967292 609.533346507 -20.5115690422 265.147893566 -20.5115690422 600.708695428)
(1041.95106796 133.186027111 280.175261531 133.186027111 616.703289299 -18.3906306413 280.175261531 -18.3906306413 599.365933104)
(1054.61945947 104.581064792 294.892652672 104.581064792 623.711389752 -16.3901908732 294.892652672 -16.3901908732 596.576413724)
(1066.30469823 71.7652540291 307.341580555 71.7652540291 630.237594737 -12.123324176 307.341580555 -12.123324176 595.072054123)
(1068.82838711 32.6194349003 316.093129964 32.6194349003 633.384863688 -6.99128293241 316.093129964 -6.99128293241 594.036779504)
(1072.74313287 -0.372290259252 315.474755837 -0.372290259252 636.025201342 -0.0824763546833 315.474755837 -0.0824763546833 591.634992588)
(1070.47850288 -31.6045140448 316.353922399 -31.6045140448 633.965819185 6.8608462567 316.353922399 6.8608462567 594.19949121)
(1062.50015971 -73.0523219216 307.283845919 -73.0523219216 629.708118748 11.7694414074 307.283845919 11.7694414074 595.429581337)
(1058.31856009 -105.367943924 295.401738805 -105.367943924 624.939409751 16.3597540143 295.401738805 16.3597540143 597.24328846)
(1052.76014915 -135.515582177 280.760047674 -135.515582177 619.486664018 18.8152150391 280.760047674 18.8152150391 600.733281413)
(1047.33964579 -160.016362594 266.270830575 -160.016362594 611.412534263 19.933432809 266.270830575 19.933432809 602.247237892)
(1032.71642012 -178.668872375 248.183277139 -178.668872375 606.406750949 21.4218761049 248.183277139 21.4218761049 602.714549204)
(1058.62538913 -206.687067948 229.188020193 -206.687067948 604.890321126 23.5063478263 229.188020193 23.5063478263 602.276334744)
(1448.70695567 233.186495408 247.645663953 233.186495408 797.775387842 -60.711734026 247.645663953 -60.711734026 788.47553062)
(1407.03072546 199.628905648 275.966760004 199.628905648 820.213028293 -53.2177580587 275.966760004 -53.2177580587 796.280564213)
(1452.33264766 172.749692068 299.864965744 172.749692068 848.45733248 -54.2423740211 299.864965744 -54.2423740211 807.469537493)
(1475.35298105 147.620002565 316.152071178 147.620002565 878.970196692 -49.0596544571 316.152071178 -49.0596544571 813.876824157)
(1496.95546317 114.359806987 333.483442976 114.359806987 905.448724765 -42.8055723442 333.483442976 -42.8055723442 816.487003603)
(1482.80899953 80.7366143715 345.072385732 80.7366143715 924.606923407 -30.4844788593 345.072385732 -30.4844788593 816.664382855)
(1446.62931377 45.7407285629 347.535445229 45.7407285629 937.479537636 -16.3959943204 347.535445229 -16.3959943204 814.710886702)
(1438.46505598 -1.29746740158 348.180018765 -1.29746740158 939.588979721 -0.005287735862 348.180018765 -0.00528773586199 812.820307475)
(1446.24121617 -45.0098798482 347.809252303 -45.0098798482 934.818897298 15.6758232757 347.809252303 15.6758232757 814.894156272)
(1487.3621178 -79.5781655526 344.921923663 -79.5781655526 927.832183304 30.9566041761 344.921923663 30.9566041761 816.985117825)
(1495.74090611 -114.518268693 333.499345771 -114.518268693 906.35239544 42.8557707967 333.499345771 42.8557707967 816.931081845)
(1473.87550706 -147.914631048 315.264412359 -147.914631048 878.743336725 48.8981032455 315.264412359 48.8981032455 814.124548131)
(1441.85485643 -171.703482781 300.336616 -171.703482781 847.611676632 53.6162237577 300.336616 53.6162237577 807.286091001)
(1396.70902881 -198.660537855 275.843619599 -198.660537855 819.8755936 52.4925173792 275.843619599 52.4925173792 796.179129529)
(1437.59845424 -232.729981057 247.481279967 -232.729981057 797.703293627 59.9377414075 247.481279967 59.9377414075 788.589899503)
(1892.47134637 238.983199644 255.288907556 238.983199644 1033.51450883 -103.454688697 255.288907556 -103.454688697 1017.22353976)
(1859.46174068 210.949152157 290.619754581 210.949152157 1086.91427476 -93.9219101857 290.619754581 -93.9219101857 1036.44898844)
(1950.13574654 178.506899948 317.417528678 178.506899948 1143.16811281 -96.5205872663 317.417528678 -96.5205872663 1061.85504257)
(1992.5446871 157.685547658 336.038842657 157.685547658 1205.66709054 -89.0184092018 336.038842657 -89.0184092018 1081.41509649)
(2024.99527692 127.516318336 352.712941107 127.516318336 1263.53152166 -78.1841726939 352.712941107 -78.1841726939 1093.03589507)
(2024.39686363 97.0177432472 361.689751982 97.0177432472 1306.9695867 -58.3047097279 361.689751982 -58.3047097279 1098.4035626)
(2034.5766172 50.5145943834 371.651211135 50.5145943834 1336.0382467 -30.9454832244 371.651211135 -30.9454832244 1100.5673584)
(2042.21365721 2.46811859179 375.290312628 2.46811859179 1349.64098498 -0.915524116642 375.290312628 -0.915524116642 1101.7554363)
(2033.57764834 -53.0389364017 371.441816975 -53.0389364017 1334.41626606 31.0327952395 371.441816975 31.0327952395 1100.4535884)
(2023.26646729 -96.6051418154 362.460419029 -96.6051418154 1306.62033227 57.6724324413 362.460419029 57.6724324413 1098.32182579)
(2027.17254736 -127.88894376 352.502837839 -127.88894376 1263.37127113 77.8124389165 352.502837839 77.8124389165 1092.72408322)
(1990.30339667 -160.051485567 336.07504606 -160.051485567 1204.74621312 88.5740741198 336.07504606 88.5740741198 1081.16138935)
(1954.99152193 -178.628016072 317.627083619 -178.628016072 1144.47022555 96.363170683 317.627083619 96.363170683 1062.31682053)
(1864.85575357 -209.920435129 291.23142977 -209.920435129 1087.32461733 93.2378408908 291.23142977 93.2378408908 1036.0198004)
(1894.26126539 -241.146940774 254.013660782 -241.146940774 1034.38814063 103.795983055 254.013660782 103.795983055 1018.58630769)
(2449.12630986 227.856937618 241.66179958 227.856937618 1325.47169908 -158.229826204 241.66179958 -158.229826204 1300.42842373)
(2450.49209098 213.313838472 283.854862357 213.313838472 1411.31617108 -141.857952096 283.854862357 -141.857952096 1328.83329028)
(2545.78699962 184.400950989 309.598497551 184.400950989 1492.80804506 -145.774790165 309.598497551 -145.774790165 1366.42792198)
(2608.39620936 161.327319375 331.591869544 161.327319375 1596.15543685 -136.176527148 331.591869544 -136.176527148 1400.69650972)
(2654.81703615 133.958752156 341.965901418 133.958752156 1683.32983007 -118.625719614 341.965901418 -118.625719614 1423.13908048)
(2699.43539107 99.6825177486 353.171565186 99.6825177486 1758.26122144 -90.0604642237 353.171565186 -90.0604642237 1437.96881296)
(2733.66664298 53.4039738741 363.378750026 53.4039738741 1809.52036835 -49.2934987914 363.378750026 -49.2934987914 1445.17793114)
(2746.88318722 -0.10662774778 364.752223658 -0.10662774778 1829.53029169 -0.184706182768 364.752223658 -0.184706182768 1447.20807375)
(2746.03747252 -49.8909729414 358.899076295 -49.8909729414 1813.03129035 47.7595063391 358.899076295 47.7595063391 1446.50068218)
(2697.67433439 -101.863895727 353.17669561 -101.863895727 1759.64005892 90.7777731109 353.17669561 90.7777731109 1437.89144468)
(2656.98457623 -132.923510814 342.802942315 -132.923510814 1688.71375859 119.390746182 342.802942315 119.390746182 1423.66245391)
(2610.02736977 -160.203863834 332.19474378 -160.203863834 1593.80043988 133.718117045 332.19474378 133.718117045 1399.78823547)
(2551.71272228 -179.999535652 310.951208923 -179.999535652 1494.33688986 143.761783332 310.951208923 143.761783332 1366.25584364)
(2454.30088268 -214.727067691 280.931416366 -214.727067691 1411.88789062 142.550307119 280.931416366 142.550307119 1330.57151105)
(2448.21370617 -228.807262474 240.708797755 -228.807262474 1324.4878971 157.160489529 240.708797755 157.160489529 1299.98023056)
(3037.07044443 201.635433564 207.179248225 201.635433564 1656.26927315 -214.91421983 207.179248225 -214.91421983 1625.26990386)
(3118.706395 202.026431303 242.463357594 202.026431303 1786.9237822 -195.401804114 242.463357594 -195.401804114 1674.09774555)
(3197.1757163 166.733813908 280.332035743 166.733813908 1891.94316575 -193.482330668 280.332035743 -193.482330668 1710.8650499)
(3258.48427016 149.299027586 294.538551916 149.299027586 2028.85755021 -183.321154724 294.538551916 -183.321154724 1759.67050712)
(3343.17331835 126.049275482 299.211375757 126.049275482 2152.83076924 -161.791977034 299.211375757 -161.791977034 1799.01956062)
(3436.78611118 86.4684708039 304.878047732 86.4684708039 2258.56574206 -120.433154047 304.878047732 -120.433154047 1825.84852522)
(3496.04514699 44.9461510107 311.093839179 44.9461510107 2331.4315834 -64.9157885536 311.093839179 -64.9157885536 1839.98579339)
(3518.72150603 0.483918004754 313.159729235 0.483918004754 2355.80399044 -0.712841691778 313.159729235 -0.712841691778 1845.17909984)
(3494.45825908 -46.5777294993 311.403137355 -46.5777294993 2328.96373282 64.7845058344 311.403137355 64.7845058344 1839.63945708)
(3433.09319964 -87.859112783 306.20305942 -87.859112783 2260.08503943 120.51192209 306.20305942 120.51192209 1824.7463944)
(3342.68009222 -123.322040576 301.392576769 -123.322040576 2149.19887948 158.705712608 301.392576769 158.705712608 1796.4828681)
(3265.33867535 -150.939326773 292.650523462 -150.939326773 2029.49076425 183.188981148 292.650523462 183.188981148 1761.40040759)
(3194.37763021 -167.126633452 281.13549517 -167.126633452 1894.34133038 194.708972306 281.13549517 194.708972306 1712.98551288)
(3119.2647455 -204.002870601 240.714275178 -204.002870601 1789.07381026 196.285724225 240.714275178 196.285724225 1675.95727847)
(3042.32168542 -201.253120815 206.190753583 -201.253120815 1656.29390087 213.222512279 206.190753583 213.222512279 1624.52497178)
(3682.64939694 141.814393439 146.785761561 141.814393439 2028.23377348 -271.745656186 146.785761561 -271.745656186 1987.39776125)
(3837.38436622 174.66935573 172.903241998 174.66935573 2208.41161154 -249.990441004 172.903241998 -249.990441004 2064.84694724)
(3810.79034545 154.850433335 226.146830067 154.850433335 2311.98153444 -236.185830004 226.146830067 -236.185830004 2084.7616254)
(3911.27345392 128.445005932 230.268603284 128.445005932 2484.85064592 -223.612198621 230.268603284 -223.612198621 2161.99257711)
(4044.1020073 100.512519838 232.808327383 100.512519838 2638.54563219 -190.943533848 232.808327383 -190.943533848 2210.1960616)
(4171.43977104 71.5967274925 228.53163856 71.5967274925 2768.00602742 -144.509840979 228.53163856 -144.509840979 2251.26994946)
(4267.94130529 40.8069395463 219.120824737 40.8069395463 2862.74244 -80.3096271309 219.120824737 -80.3096271309 2276.34014722)
(4297.09795859 -1.2714169232 220.899384551 -1.2714169232 2893.99900598 0.377614674486 220.899384551 0.377614674486 2280.80875744)
(4271.39074669 -38.0300671045 217.5120184 -38.0300671045 2866.40844569 78.5534188851 217.5120184 78.5534188851 2277.64491373)
(4168.16611775 -71.8334690194 228.512544797 -71.8334690194 2768.17106556 143.184879017 228.512544797 143.184879017 2249.3054084)
(4057.08985215 -101.03169188 225.956073546 -101.03169188 2643.54135275 192.736261446 225.956073546 192.736261446 2216.66838975)
(3911.11391344 -134.600432612 231.307529478 -134.600432612 2484.95746902 225.718300613 231.307529478 225.718300613 2163.10585871)
(3806.92664751 -152.222690575 227.625974203 -152.222690575 2318.31047162 237.85734919 227.625974203 237.85734919 2094.59954988)
(3840.31919557 -177.655501489 172.857366034 -177.655501489 2213.93468558 247.257281684 172.857366034 247.257281684 2068.898815)
(3693.33052902 -143.242036843 145.915774067 -143.242036843 2032.03624767 268.853430869 145.915774067 268.853430869 1989.09546859)
(4332.36930704 63.1908922624 64.096680983 63.1908922624 2425.41607247 -324.759827913 64.096680983 -324.759827913 2380.81969117)
(4434.69217066 156.151918454 91.3831473939 156.151918454 2616.95132515 -296.852148767 91.3831473939 -296.852148767 2441.21872585)
(4253.33168053 144.28594268 154.028024062 144.28594268 2665.96063595 -273.014383284 154.028024062 -273.014383284 2408.82942967)
(4459.15809142 107.686159081 136.581155436 107.686159081 2874.60695003 -256.64569722 136.581155436 -256.64569722 2503.89126784)
(4666.44379685 84.9213535815 121.620366757 84.9213535815 3062.65508432 -221.235003857 121.620366757 -221.235003857 2577.09917417)
(4829.88828242 46.0076422307 101.676151472 46.0076422307 3231.19000827 -160.233760869 101.676151472 -160.233760869 2637.77316427)
(4953.56347166 22.28324713 86.9693455073 22.28324713 3348.49450969 -85.2787295974 86.9693455073 -85.2787295974 2681.43288708)
(5010.8435142 0.470550827263 75.8615762036 0.470550827263 3402.25782934 -0.410772259588 75.8615762036 -0.410772259588 2705.8316918)
(4950.89582909 -23.9948626656 88.3436584474 -23.9948626656 3350.55726264 86.855413941 88.3436584474 86.855413941 2680.69125021)
(4836.74577341 -51.3159611354 97.6807509404 -51.3159611354 3227.12802754 161.215822372 97.6807509404 161.215822372 2640.85971771)
(4662.86935291 -74.31903914 122.087860548 -74.31903914 3068.16965136 216.795335045 122.087860548 216.795335045 2575.18504018)
(4468.23458103 -108.650757554 140.408417398 -108.650757554 2878.25431353 256.80920137 140.408417398 256.80920137 2506.92900745)
(4242.13084901 -130.968125853 155.592745244 -130.968125853 2674.59236793 272.407064296 155.592745244 272.407064296 2411.45395159)
(4347.71842767 -167.54370786 118.818855637 -167.54370786 2597.40584864 288.439717532 118.818855637 288.439717532 2416.19065915)
(4378.76086744 -74.5242505162 65.2340460817 -74.5242505162 2452.13291616 320.528960568 65.2340460817 320.528960568 2404.81673977)
(4975.90458819 -25.9620114852 -23.3020417224 -25.9620114852 2855.05360457 -370.551666044 -23.3020417224 -370.551666044 2802.64842043)
(4585.3922113 19.1933046411 82.0470879416 19.1933046411 2869.16674649 -360.43325869 82.0470879416 -360.43325869 2693.8494048)
(5193.8002354 -49.3954046836 0.847136384199 -49.3954046836 3185.80878751 -343.094531688 0.847136384199 -343.094531688 2866.22173967)
(5335.28380233 -65.0218093211 -25.0213715586 -65.0218093211 3407.72348342 -318.346280685 -25.0213715586 -318.346280685 2960.12407775)
(5616.94541923 -91.9526114605 -94.0016405166 -91.9526114605 3656.48533813 -269.569040048 -94.0016405166 -269.569040048 3074.559459)
(5762.31077552 -104.590082913 -152.343899513 -104.590082913 3837.0713612 -189.678181263 -152.343899513 -189.678181263 3145.69599923)
(5873.79582727 -64.7943098137 -183.682977219 -64.7943098137 3915.26085163 -92.0385031242 -183.682977219 -92.0385031242 3180.46926034)
(5891.84078761 -2.07719197868 -199.637680786 -2.07719197868 3935.09013594 -0.214275367469 -199.637680786 -0.214275367469 3183.94650358)
(5871.40703946 58.9606938886 -188.705309827 58.9606938886 3922.9537286 98.0441529889 -188.705309827 98.0441529889 3182.7407936)
(5781.02640376 95.7353697149 -154.747003991 95.7353697149 3836.1498221 191.149754004 -154.747003991 191.149754004 3146.95122315)
(5603.70702879 99.096788517 -84.8170862662 99.096788517 3658.1675876 264.761395517 -84.8170862662 264.761395517 3071.82090212)
(5336.23971177 68.1861669544 -25.6368761095 68.1861669544 3400.92804911 315.689771729 -25.6368761095 315.689771729 2960.58183954)
(5176.03627141 32.530177892 15.0169891758 32.530177892 3172.50581263 342.229129468 15.0169891758 342.229129468 2873.87256374)