/*--------------------------------*- C++ -*----------------------------------*\
| =========                 |                                                 |
| \\      /  F ield         | OpenFOAM: The Open Source CFD Toolbox           |
|  \\    /   O peration     | Version:  2.4.0                                 |
|   \\  /    A nd           | Web:      www.OpenFOAM.org                      |
|    \\/     M anipulation  |                                                 |
\*---------------------------------------------------------------------------*/
FoamFile
{
    version     2.0;
    format      ascii;
    class       volTensorField;
    location    "0.0002049282";
    object      stress;
}
// * * * * * * * * * * * * * * * * * * * * * * * * * * * * * * * * * * * * * //

dimensions      [1 -1 -2 0 0 0 0];

internalField   nonuniform List<tensor> 
29700
(
(3759.85443343 -14.5390463303 -25.1130611702 -14.5390463303 3200.22938382 -126.913183842 -25.1130611702 -126.913183842 3191.85983772)
(3934.81222316 -8.50762936063 -3.63984639021 -8.50762936063 3404.50120877 -120.574421666 -3.63984639021 -120.574421666 3360.60493373)
(4074.72909837 -7.05774120834 16.6199174427 -7.05774120834 3588.48256282 -118.07902091 16.6199174427 -118.07902091 3486.29013021)
(4288.13536578 -1.43148049839 27.5823328383 -1.43148049839 3819.30977992 -105.080571829 27.5823328383 -105.080571829 3672.50062717)
(4463.85006158 1.07559870089 39.0673261929 1.07559870089 4024.70246388 -84.6565433594 39.0673261929 -84.6565433594 3836.3675174)
(4622.43222665 -0.133447002018 46.303559295 -0.133447002018 4206.67993198 -59.4290074263 46.303559295 -59.4290074263 3987.61338707)
(4740.4236294 -1.10258086258 51.3663121044 -1.10258086258 4349.20229815 -31.6687257548 51.3663121044 -31.6687257548 4108.98896777)
(4782.33771766 0.164291465723 52.9072426852 0.164291465723 4402.97698949 0.0425709048031 52.9072426852 0.0425709048032 4154.82400389)
(4739.34352956 0.602591466755 51.4619568398 0.602591466755 4347.20950061 31.8285798331 51.4619568398 31.8285798331 4107.34978368)
(4619.16418823 -1.01910769556 46.5446906783 -1.01910769556 4204.49541294 59.8803699283 46.5446906783 59.8803699283 3986.18853534)
(4466.19014925 -1.12782908743 39.2394691271 -1.12782908743 4024.77406903 85.0305298062 39.2394691271 85.0305298062 3834.95632373)
(4279.76704739 0.501748016013 26.9338414963 0.501748016013 3811.62987523 105.739969189 26.9338414963 105.739969189 3663.33026093)
(4072.55941873 6.14760006702 16.6428432763 6.14760006702 3582.01327259 119.67411361 16.6428432763 119.67411361 3478.75958544)
(3888.72260057 12.346073871 1.84260334683 12.346073871 3372.86335525 123.125549504 1.84260334683 123.125549504 3322.37998986)
(3725.44232383 25.3090291731 -5.09696637863 25.3090291731 3184.64887717 125.762266994 -5.09696637863 125.762266994 3141.54101986)
(3259.50264221 -32.0729974562 -46.0127040761 -32.0729974562 2739.45629964 -119.323115006 -46.0127040761 -119.323115006 2746.78011166)
(3443.8185632 -21.7676829413 -37.6657927827 -21.7676829413 2881.13467655 -145.989843371 -37.6657927827 -145.989843371 2853.56312978)
(3600.32428237 -22.8888430627 -25.31471546 -22.8888430627 3085.2246592 -138.864054835 -25.31471546 -138.864054835 2982.65775735)
(3783.47431196 -16.785457586 -14.4280708167 -16.785457586 3292.17726789 -125.389130708 -14.4280708167 -125.389130708 3128.6481318)
(3934.67588722 -9.38183485714 -5.26843646969 -9.38183485714 3472.77377019 -103.799722245 -5.26843646969 -103.799722245 3259.21326372)
(4067.71775355 -4.97628930228 2.08606425599 -4.97628930228 3626.9570529 -74.4608645478 2.08606425599 -74.4608645478 3371.56642205)
(4161.28549768 -2.41090754673 7.88964807167 -2.41090754673 3736.749351 -38.9554911701 7.88964807167 -38.9554911701 3453.08586128)
(4193.88961007 -0.0233890935926 9.9883541511 -0.0233890935925 3776.00058041 0.107900680836 9.9883541511 0.107900680836 3481.92008029)
(4161.07770811 2.01529136467 7.76146102738 2.01529136467 3736.55384014 39.0195433393 7.76146102738 39.0195433393 3453.42762116)
(4065.10036959 4.3207538834 2.07524917762 4.3207538834 3624.87380819 74.7367827883 2.07524917762 74.7367827883 3369.79741778)
(3936.32079952 9.31444953966 -5.74948796814 9.31444953966 3473.17258061 103.771174107 -5.74948796814 103.771174107 3259.34349762)
(3778.59226192 16.1441417066 -15.7240702023 16.1441417066 3289.24332132 125.349781474 -15.7240702023 125.349781474 3123.95595151)
(3602.21383464 23.6993228805 -26.4287470672 23.6993228805 3088.77450603 139.542638584 -26.4287470672 139.542638584 2980.70815126)
(3434.58808056 26.3577756246 -38.0556433872 26.3577756246 2882.36887736 147.613409343 -38.0556433872 147.613409343 2846.13407252)
(3301.12784594 39.238513023 -44.7855854821 39.238513023 2757.66717998 124.253977744 -44.7855854821 124.253977744 2753.49845132)
(2780.07674844 -56.7351682549 -64.4248740636 -56.7351682549 2296.44886279 -112.905872188 -64.4248740636 -112.905872188 2300.91698957)
(2903.08994134 -50.2957661771 -71.3685588562 -50.2957661771 2388.58260434 -143.923443121 -71.3685588562 -143.923443121 2350.86137616)
(3097.13175932 -40.3656592061 -63.3343756116 -40.3656592061 2604.03992368 -130.826780644 -63.3343756116 -130.826780644 2494.50604131)
(3267.46908213 -34.303509054 -56.5073822161 -34.303509054 2782.49109528 -121.162742537 -56.5073822161 -121.162742537 2616.96269108)
(3402.63963866 -23.6393644491 -50.264095884 -23.6393644491 2939.5029546 -102.060520537 -50.264095884 -102.060520537 2722.00724511)
(3513.57616099 -13.8635528877 -44.206497318 -13.8635528877 3068.11070449 -74.275763179 -44.206497318 -74.275763179 2807.80391003)
(3590.20118474 -6.26794565618 -38.9239379703 -6.26794565618 3157.98924896 -38.8886344784 -38.9239379703 -38.8886344784 2870.07818336)
(3616.28832874 -0.106795447548 -37.1002868376 -0.106795447548 3189.23634673 0.0829570343905 -37.1002868376 0.0829570343905 2891.81176705)
(3589.39270279 5.95306399837 -39.2632731965 5.95306399837 3157.31423726 39.1071391986 -39.2632731965 39.1071391986 2869.27087239)
(3512.21989944 13.4799263738 -44.4942618328 13.4799263738 3067.15113778 74.4696497023 -44.4942618328 74.4696497023 2806.90750244)
(3403.69955601 23.1718129517 -50.4688653214 23.1718129517 2940.10590399 102.130713614 -50.4688653214 102.130713614 2722.43060376)
(3265.39889331 33.7071704729 -57.4928174998 33.7071704729 2782.01942701 121.709636868 -57.4928174998 121.709636868 2615.68864995)
(3102.38372295 41.3216964766 -64.1409005493 41.3216964766 2610.15008586 131.354646194 -64.1409005493 131.354646194 2497.70970705)
(2908.80599613 52.3297914029 -72.3410094014 52.3297914029 2394.79621699 145.497380677 -72.3410094014 145.497380677 2354.75734426)
(2794.12046328 58.497936453 -64.7299194454 58.497936453 2304.37358194 114.108485085 -64.7299194454 114.108485085 2308.27951357)
(2312.29880063 -79.4768704985 -83.820079374 -79.4768704985 1873.62788014 -103.708050149 -83.820079374 -103.708050149 1874.73090521)
(2386.84065852 -75.6095034888 -100.835618563 -75.6095034888 1934.03518835 -129.421811621 -100.835618563 -129.421811621 1893.43385562)
(2558.91768788 -57.9849124163 -96.2799178334 -57.9849124163 2116.18312953 -116.127558796 -96.2799178334 -116.127558796 2015.9533978)
(2708.80013371 -50.5142282575 -95.5494040803 -50.5142282575 2260.2496584 -111.679461327 -95.5494040803 -111.679461327 2109.21596504)
(2831.81728428 -37.7116652105 -93.0785126092 -37.7116652105 2395.81818065 -94.6437685281 -93.0785126092 -94.6437685281 2192.97532877)
(2921.78158179 -24.4324491617 -90.7934153205 -24.4324491617 2498.168329 -69.8365244128 -90.7934153205 -69.8365244128 2252.17260372)
(2980.38259558 -11.5413094249 -88.1722633359 -11.5413094249 2566.36366001 -36.8671509338 -88.1722633359 -36.8671509338 2290.7700957)
(2998.71368336 -0.141850312443 -87.1146204232 -0.141850312443 2588.50450969 0.13234021373 -87.1146204232 0.13234021373 2302.40176927)
(2979.18704494 11.2326604447 -88.3522623853 11.2326604447 2565.24698039 37.1458209595 -88.3522623853 37.1458209595 2289.49366265)
(2921.23612141 24.1247061628 -90.9544463075 24.1247061628 2497.66731217 70.1692462411 -90.9544463075 70.1692462411 2251.55318678)
(2832.87020183 37.337109695 -93.2485102927 37.337109695 2396.59208927 94.8703604031 -93.2485102927 94.8703604031 2193.77410598)
(2709.0441711 50.2526512202 -95.8459616673 50.2526512202 2261.61190258 112.003500198 -95.8459616673 112.003500198 2109.93207563)
(2563.65946335 58.2756296518 -96.098089536 58.2756296518 2121.12353024 116.421640985 -96.098089536 116.421640985 2020.48166935)
(2391.17056109 75.8375564845 -100.981152984 75.8375564845 1938.24685367 129.769163861 -100.981152984 129.769163861 1897.99482707)
(2317.30557874 79.3956651403 -83.605755286 79.3956651403 1877.12147316 103.749747738 -83.605755286 103.749747738 1878.80412543)
(1870.53324538 -97.7147847749 -100.976918163 -97.7147847749 1486.72848843 -91.0672964578 -100.976918163 -91.0672964578 1485.55707113)
(1909.53517882 -97.6842035877 -125.23040341 -97.6842035877 1521.50248227 -112.197116107 -125.23040341 -112.197116107 1481.22417493)
(2037.02824327 -76.7429103268 -125.727576046 -76.7429103268 1655.11920895 -100.217413605 -125.727576046 -100.217413605 1564.02425547)
(2146.07463307 -67.5054503542 -131.867799248 -67.5054503542 1755.4907708 -97.532352191 -131.867799248 -97.532352191 1620.84633931)
(2248.26755812 -51.8249809554 -134.450106253 -51.8249809554 1859.88383252 -83.4952147118 -134.450106253 -83.4952147118 1679.45558531)
(2318.32556171 -35.5768700643 -136.788153584 -35.5768700643 1937.49280578 -62.3850709094 -136.788153584 -62.3850709094 1717.09722095)
(2361.47926748 -17.6913151438 -137.479595198 -17.6913151438 1987.59107562 -33.1844119859 -137.479595198 -33.1844119859 1739.21605751)
(2376.12811973 -0.132351037467 -137.760855292 -0.132351037467 2004.64842592 0.108914362961 -137.760855292 0.108914362961 1746.51125044)
(2360.94884044 17.4382350512 -137.650818859 17.4382350512 1987.35606778 33.4607178977 -137.650818859 33.4607178977 1738.84191181)
(2318.45514111 35.3666084914 -136.901594926 35.3666084914 1937.50510785 62.5633120093 -136.901594926 62.5633120093 1717.02963001)
(2249.78112895 51.5463630115 -134.250523357 51.5463630115 1861.43798055 83.509301871 -134.250523357 83.509301871 1681.06505466)
(2146.63862337 67.5293871094 -132.004056413 67.5293871094 1756.55510489 97.8938071293 -132.004056413 97.8938071293 1621.75384033)
(2039.74262076 76.5764949622 -125.268678084 76.5764949622 1657.77274804 100.153964816 -125.268678084 100.153964816 1566.94895847)
(1911.12584082 97.0791779806 -124.833003276 97.0791779806 1523.1842355 112.160248718 -124.833003276 112.160248718 1483.43202695)
(1871.85875215 97.2181966865 -100.6225499 97.2181966865 1487.76123115 91.1005831758 -100.6225499 91.1005831758 1486.81544784)
(1473.14672645 -110.048154016 -113.689225893 -110.048154016 1152.03020578 -75.6513161916 -113.689225893 -75.6513161916 1149.11398176)
(1484.31396155 -112.394424623 -141.7261993 -112.394424623 1167.48132245 -90.990120156 -141.7261993 -90.990120156 1130.17729167)
(1566.68688102 -90.6608096884 -145.248029235 -90.6608096884 1254.37711184 -80.1326110328 -145.248029235 -80.1326110328 1177.54633717)
(1627.2209761 -80.833389004 -157.854918483 -80.833389004 1310.31021631 -78.5248222565 -157.854918483 -78.5248222565 1199.99290308)
(1697.83691931 -62.1302235801 -163.605897458 -62.1302235801 1380.12631506 -66.7202892688 -163.605897458 -66.7202892688 1233.2914514)
(1748.05572687 -43.6152211171 -171.879627796 -43.6152211171 1430.0039747 -50.9959618718 -171.879627796 -50.9959618718 1249.85669037)
(1775.90390023 -22.5660669745 -175.926004377 -22.5660669745 1462.75254783 -27.3702480936 -175.926004377 -27.3702480936 1259.03847848)
(1785.23149374 -0.0616460294718 -176.970898398 -0.0616460294718 1474.02954417 0.0342865852813 -176.970898398 0.0342865852813 1261.65502307)
(1775.71493933 22.3407302019 -175.980585254 22.3407302019 1462.49993344 27.4091094006 -175.980585254 27.4091094006 1258.70141226)
(1748.64603651 43.392168662 -171.918474311 43.392168662 1430.4870023 50.8679869973 -171.918474311 50.8679869973 1250.40656951)
(1698.51113748 62.0619962207 -163.687791739 62.0619962207 1380.6526328 66.9612133914 -163.687791739 66.9612133914 1233.56045454)
(1628.09475693 80.9824470825 -157.846550103 80.9824470825 1311.09781841 78.8505154186 -157.846550103 78.8505154186 1200.53781904)
(1568.11695509 90.7164261635 -145.09709061 90.7164261635 1255.30728403 80.2995608613 -145.09709061 80.2995608613 1178.50773634)
(1485.58323723 112.3082943 -141.568087882 112.3082943 1168.29672808 91.0321457709 -141.568087882 91.0321457709 1131.25382502)
(1474.16570172 109.972090856 -113.736892111 109.972090856 1152.56391796 75.7845185119 -113.736892111 75.7845185119 1149.73425902)
(1130.55676598 -115.332393415 -120.355723922 -115.332393415 876.441128916 -59.19541376 -120.355723922 -59.19541376 871.098788977)
(1118.57612242 -116.992950197 -148.285413508 -116.992950197 878.266839636 -68.111644309 -148.285413508 -68.111644309 844.418553438)
(1164.49419998 -96.0424524187 -152.630990839 -96.0424524187 925.695832244 -58.1623291755 -152.630990839 -58.1623291755 864.82905686)
(1180.83459043 -87.1293943445 -168.892459177 -87.1293943445 943.948937869 -57.4195766068 -168.892459177 -57.4195766068 860.885751558)
(1215.89945203 -66.5507061708 -176.081375035 -66.5507061708 981.079294079 -47.143592299 -176.081375035 -47.143592299 872.646577125)
(1238.43338083 -48.3857750063 -187.79204266 -48.3857750063 1002.71612756 -37.3269351198 -187.79204266 -37.3269351198 871.883489223)
(1262.16106983 -24.35317685 -195.679117207 -24.35317685 1023.72968643 -20.212293523 -195.679117207 -20.212293523 875.139181241)
(1268.76897581 -0.0975638123859 -198.612431766 -0.0975638123859 1029.85605781 -0.0504003538503 -198.612431766 -0.0504003538503 875.034844182)
(1262.44496506 24.2026828355 -195.717832177 24.2026828355 1023.91457691 20.170658024 -195.717832177 20.170658024 875.316932953)
(1238.92546565 48.1279234909 -187.670495792 48.1279234909 1003.1097328 37.2230602467 -187.670495792 37.2230602467 872.352504332)
(1215.83113639 66.2562908595 -175.874500771 66.2562908595 981.155464289 46.9903885619 -175.874500771 46.9903885619 872.695354679)
(1180.24193887 86.7444143713 -168.700387191 86.7444143713 943.522683229 57.4959992523 -168.700387191 57.4959992523 860.612170124)
(1163.5686956 95.4820364075 -152.42032132 95.4820364075 924.905227912 58.0969220874 -152.42032132 58.0969220874 864.213744436)
(1116.40607765 116.457873808 -148.119832729 116.457873808 876.660395068 68.2105217093 -148.119832729 68.2105217093 843.020544801)
(1127.79992791 114.708991974 -119.810632731 114.708991974 874.319597121 59.2873572927 -119.810632731 59.2873572927 869.25690637)
(843.902537896 -115.055990157 -124.501150036 -115.055990157 658.273500481 -43.9868929875 -124.501150036 -43.9868929875 647.629014052)
(827.207929349 -108.108310421 -142.387507627 -108.108310421 658.495618383 -42.6740459933 -142.387507627 -42.6740459933 627.562576419)
(844.219055328 -91.9289870555 -145.362547698 -91.9289870555 673.239647807 -36.770987905 -145.362547698 -36.770987905 632.238411183)
(841.477322381 -79.9728786088 -156.86005586 -79.9728786088 676.518424837 -33.9693878784 -156.86005586 -33.9693878784 621.029091459)
(848.485144916 -61.4953577611 -163.922584497 -61.4953577611 687.036303266 -27.0051549441 -163.922584497 -27.0051549441 619.247577008)
(850.67766047 -42.9195605926 -173.213324695 -42.9195605926 691.941344853 -19.8704255997 -173.213324695 -19.8704255997 610.933221545)
(859.280338539 -21.3165342447 -178.682309001 -21.3165342447 699.085110002 -9.82855651906 -178.682309001 -9.82855651906 610.378550369)
(862.946110097 -0.0621412030705 -182.875029157 -0.0621412030705 700.596990027 -0.0206630534182 -182.875029157 -0.0206630534182 608.17639967)
(859.364161714 21.2324303308 -178.844064423 21.2324303308 699.058759236 9.89900233218 -178.844064423 9.89900233218 610.151922508)
(851.047644554 42.8694137869 -173.148397046 42.8694137869 692.065201153 19.9182109329 -173.148397046 19.9182109329 611.321045143)
(848.599154739 61.4245863475 -164.025202334 61.4245863475 686.933962983 26.9660892175 -164.025202334 26.9660892175 619.158312591)
(841.788654768 80.1591369767 -156.912297712 80.1591369767 676.648174976 33.9125533217 -156.912297712 33.9125533217 621.26538508)
(845.135020714 92.389739239 -145.376378196 92.389739239 673.554818249 36.7527137894 -145.376378196 36.7527137894 632.301983182)
(830.969029725 107.729182423 -140.899410094 107.729182423 661.573501545 41.2780405487 -140.899410094 41.2780405487 630.148917712)
(843.611236332 115.466301588 -124.350788302 115.466301588 659.686069981 43.4475236227 -124.350788302 43.4475236227 648.240105841)
(615.592369097 -111.778850959 -124.27344067 -111.778850959 491.407073648 -29.3591876617 -124.27344067 -29.3591876617 480.734903337)
(608.863015928 -97.2401727473 -127.908038688 -97.2401727473 491.14495481 -24.0870310549 -127.908038688 -24.0870310549 470.853166946)
(603.114087404 -84.62432765 -131.22082097 -84.62432765 486.723580959 -21.5162309626 -131.22082097 -21.5162309626 462.640519853)
(590.019191274 -71.4776097511 -137.840442563 -71.4776097511 480.72917384 -18.9360326186 -137.840442563 -18.9360326186 449.741737848)
(581.035901879 -55.3101284846 -143.82719432 -55.3101284846 477.008095585 -15.0110761011 -143.82719432 -15.0110761011 440.039880375)
(572.848485707 -37.4202814128 -149.440386531 -37.4202814128 473.041827891 -10.5755605904 -149.440386531 -10.5755605904 430.723108923)
(570.618872217 -18.2420309855 -153.198850939 -18.2420309855 471.51143973 -5.30824329283 -153.198850939 -5.30824329283 426.03535945)
(571.994517362 -0.0253086921766 -155.44486925 -0.0253086921766 471.621990089 -0.00319906087822 -155.44486925 -0.00319906087822 424.783362454)
(570.650580005 18.2201157293 -153.278958206 18.2201157293 471.452048322 5.34844569882 -153.278958206 5.34844569882 425.954480903)
(573.090320989 37.3991304198 -149.487720648 37.3991304198 473.092506003 10.6593794874 -149.487720648 10.6593794874 430.839866138)
(581.412266361 55.2855889089 -143.958711977 55.2855889089 477.164543964 15.0906327093 -143.958711977 15.0906327093 440.179208935)
(590.768252144 71.6338366352 -138.024220748 71.6338366352 481.237996347 19.0999843117 -138.024220748 19.0999843117 450.090678596)
(605.099284421 84.9489523953 -131.395459329 84.9489523953 487.734674837 21.8302297757 -131.395459329 21.8302297757 463.693767416)
(613.725187569 97.688454782 -128.196530938 97.688454782 493.335678229 24.3931502045 -128.196530938 24.3931502045 473.556345129)
(618.52673627 114.577618804 -127.283946379 114.577618804 492.329381842 30.3302754488 -127.283946379 30.3302754488 482.081122297)
(444.938498503 -103.28175782 -115.278084908 -103.28175782 370.430567363 -16.5707378127 -115.278084908 -16.5707378127 364.247568394)
(442.116910552 -85.7766509106 -112.746405181 -85.7766509106 366.304309977 -12.6349632341 -112.746405181 -12.6349632341 355.015532139)
(426.570863155 -74.2923340783 -114.186637386 -74.2923340783 354.517553427 -10.9977345231 -114.186637386 -10.9977345231 342.170588968)
(408.261577765 -61.7890977632 -117.792394297 -61.7890977632 343.26387794 -9.18026394792 -117.792394297 -9.18026394792 328.380911791)
(392.936254461 -47.5262767533 -121.611905424 -47.5262767533 333.498989829 -7.08346047196 -121.611905424 -7.08346047196 316.542259398)
(381.033777576 -32.0008434913 -124.781319452 -32.0008434913 325.561441911 -4.8404931564 -124.781319452 -4.8404931564 307.213163394)
(374.650963962 -15.9006773679 -127.096176717 -15.9006773679 320.732710937 -2.47930600739 -127.096176717 -2.47930600739 301.623169126)
(373.432609783 -0.0118757687872 -128.244495154 -0.0118757687872 319.326261792 0.0145305583611 -128.244495154 0.0145305583611 300.09885491)
(374.653409661 15.8820987169 -127.144049073 15.8820987169 320.706483348 2.51556600653 -127.144049073 2.51556600653 301.618316518)
(381.165500519 31.989466751 -124.846198119 31.989466751 325.596158539 4.91466734591 -124.846198119 4.91466734591 307.262530692)
(393.229103266 47.5047454974 -121.684736693 47.5047454974 333.631286001 7.19054847382 -121.684736693 7.19054847382 316.647397252)
(408.74943697 61.8517265004 -117.82968816 61.8517265004 343.529990037 9.35768976726 -117.82968816 9.35768976726 328.577245272)
(427.489614146 74.4707595959 -114.12556557 74.4707595959 354.898712297 11.1823295969 -114.12556557 11.1823295969 342.543320978)
(443.475412752 85.8150620623 -112.540355254 85.8150620623 366.844175851 12.7445468579 -112.540355254 12.7445468579 355.601737389)
(445.175003861 103.038902566 -115.18213691 103.038902566 370.693455174 16.5346919517 -115.18213691 16.5346919517 364.435163228)
(320.796266461 -87.852324584 -97.9829099311 -87.852324584 283.864114769 -6.94550389916 -97.9829099311 -6.94550389916 280.526805254)
(316.536845577 -72.7278108706 -95.5363915226 -72.7278108706 275.790234034 -4.82010655453 -95.5363915226 -4.82010655453 269.903961204)
(299.604527357 -62.3476185672 -95.5513302334 -62.3476185672 262.077518495 -3.90484688051 -95.5513302334 -3.90484688051 256.836130869)
(281.165329411 -51.1505352114 -97.0837428224 -51.1505352114 249.383448823 -3.00064684846 -97.0837428224 -3.00064684846 243.988850569)
(265.311839649 -38.9382141508 -98.8066965829 -38.9382141508 238.281925973 -2.08371373149 -98.8066965829 -2.08371373149 232.976562068)
(253.372220901 -26.0796226614 -100.185553662 -26.0796226614 229.588211819 -1.32147700466 -100.185553662 -1.32147700466 224.604677048)
(246.32141076 -12.9764096782 -101.220946005 -12.9764096782 224.068950896 -0.678085020184 -101.220946005 -0.678085020184 219.508421931)
(244.320783224 0.00228207700945 -101.731455031 0.00228207700945 222.215476824 0.00523799408676 -101.731455031 0.00523799408676 217.945837124)
(246.356949496 12.9724012784 -101.245611425 12.9724012784 224.046535034 0.692658966375 -101.245611425 0.692658966375 219.527345503)
(253.44988576 26.0336767062 -100.216734413 26.0336767062 229.587784606 1.38653471948 -100.216734413 1.38653471948 224.621295663)
(265.478360642 38.8901097667 -98.8280550721 38.8901097667 238.322279968 2.18056207848 -98.8280550721 2.18056207848 233.00135679)
(281.429686839 51.1640395945 -97.0970883591 51.1640395945 249.458340938 3.09764273875 -97.0970883591 3.09764273875 244.074443321)
(300.084666005 62.4067568884 -95.5442816554 62.4067568884 262.167947955 4.02999171693 -95.5442816554 4.02999171693 256.931555045)
(317.304668985 72.7746540418 -95.5797942678 72.7746540418 275.883301704 4.93285609943 -95.5797942678 4.93285609943 270.022356418)
(321.640350188 87.7769458184 -98.0227413348 87.7769458184 283.991739897 6.99932160226 -98.0227413348 6.99932160226 280.68932864)
(233.439619596 -72.8493352783 -81.1374571708 -72.8493352783 221.696984911 -1.30552699109 -81.1374571708 -1.30552699109 219.963089297)
(227.633784851 -59.9731044106 -79.0693249477 -59.9731044106 211.88958132 -0.2355317001 -79.0693249477 -0.2355317001 209.083609408)
(212.047748776 -50.7385520661 -77.9480027452 -50.7385520661 198.550150111 0.0998614085774 -77.9480027452 0.0998614085774 197.147136449)
(195.714268973 -41.0235911375 -77.8796047333 -41.0235911375 186.45460481 0.287958683946 -77.8796047333 0.287958683946 185.899631208)
(181.792103128 -30.8447323588 -78.0459741021 -30.8447323588 176.117861686 0.407046623206 -78.0459741021 0.407046623206 176.396409416)
(171.41728092 -20.4686993167 -78.1842653181 -20.4686993167 168.161105523 0.353977285621 -78.1842653181 0.353977285621 169.271862117)
(165.190646978 -10.1583472712 -78.3485201536 -10.1583472712 163.127054505 0.187357333409 -78.3485201536 0.187357333409 164.955039063)
(163.217617776 0.000938207997935 -78.4649484533 0.000938207997934 161.385381547 0.000455897030469 -78.4649484533 0.000455897030469 163.527585741)
(165.173629638 10.1461150061 -78.3417620735 10.1461150061 163.093952275 -0.1750184659 -78.3417620735 -0.1750184659 164.927320272)
(171.426620496 20.4372036367 -78.1917941629 20.4372036367 168.128903389 -0.320372634509 -78.1917941629 -0.320372634509 169.267215649)
(181.795657664 30.7913752019 -78.0388876831 30.7913752019 176.082295491 -0.351227995083 -78.0388876831 -0.351227995083 176.385449539)
(195.776052924 40.9948909938 -77.8635311932 40.9948909938 186.436734878 -0.231532893309 -77.8635311932 -0.231532893308 185.907426713)
(212.243742563 50.7040414526 -77.9294790125 50.7040414526 198.55662187 -0.0417620060587 -77.9294790125 -0.0417620060587 197.167516585)
(228.044222935 59.8977699793 -79.0410395141 59.8977699793 211.953785854 0.240129627473 -79.0410395141 0.240129627473 209.150729261)
(233.951806585 72.7501207954 -81.1224516219 72.7501207954 221.779518081 1.31117640309 -81.1224516219 1.31117640309 220.082625993)
(171.886254851 -59.5973741763 -66.3249762569 -59.5973741763 176.755634452 1.61584339032 -66.3249762569 1.61584339032 175.892495469)
(166.15672122 -48.6066199989 -64.5871002537 -48.6066199989 166.958613229 2.03597286783 -64.5871002537 2.03597286783 165.725640163)
(152.974361897 -40.6291660525 -62.8254886955 -40.6291660525 154.924464871 1.87387417976 -62.8254886955 1.87387417976 155.272326251)
(139.524705289 -32.4650945974 -61.8162172676 -32.4650945974 144.282066397 1.57072608704 -61.8162172676 1.57072608704 145.65678445)
(128.271740006 -24.1450640361 -61.1579788548 -24.1450640361 135.4200833 1.27868418061 -61.1579788548 1.27868418061 137.675233592)
(120.023601235 -15.9035947121 -60.7022381533 -15.9035947121 128.743944694 0.897947630453 -60.7022381533 0.897947630453 131.775402946)
(115.089631055 -7.86062682316 -60.4519105499 -7.86062682316 124.575208495 0.458386639756 -60.4519105499 0.458386639756 128.181370797)
(113.489715426 0.00204917871216 -60.3997697811 0.00204917871216 123.138843305 0.00323753002983 -60.3997697811 0.00323753002983 127.001674011)
(115.082403908 7.85573848189 -60.4560579315 7.85573848189 124.558188982 -0.448122311445 -60.4560579315 -0.448122311445 128.176923022)
(120.021246189 15.8737805851 -60.7093829275 15.8737805851 128.712528958 -0.869565098695 -60.7093829275 -0.869565098695 131.755530457)
(128.283325957 24.097564642 -61.1754938663 24.097564642 135.370694944 -1.23453585276 -61.1754938663 -1.23453585276 137.670974677)
(139.557379364 32.4360511784 -61.8434015821 32.4360511784 144.230838915 -1.53627801564 -61.8434015821 -1.53627801564 145.657427432)
(153.012735788 40.5973577664 -62.8439634368 40.5973577664 154.844941323 -1.83698296081 -62.8439634368 -1.83698296081 155.244608811)
(166.295266602 48.6065002414 -64.6437405521 48.6065002414 166.879503074 -2.01239288671 -64.6437405521 -2.01239288671 165.692975959)
(172.172220602 59.5861225742 -66.4001530037 59.5861225742 176.719772872 -1.59290445196 -66.4001530037 -1.59290445196 175.869666342)
(128.976579936 -48.7490491936 -54.1344790644 -48.7490491936 143.999919623 2.79306920823 -54.1344790644 2.79306920823 143.616298187)
(124.107586734 -39.530852009 -52.7707726861 -39.530852009 134.955422351 2.67148317104 -52.7707726861 2.67148317104 134.63774028)
(113.5672101 -32.6926562921 -50.7540693562 -32.6926562921 124.61975485 2.23512018032 -50.7540693562 2.23512018032 125.706454007)
(103.043337612 -25.9039919017 -49.4763148706 -25.9039919017 115.71165196 1.76778970352 -49.4763148706 1.76778970352 117.631286713)
(94.4354558942 -19.1480137973 -48.623532981 -19.1480137973 108.439831728 1.378108006 -48.623532981 1.378108006 111.100194073)
(88.2450017174 -12.5899900169 -48.0779289711 -12.5899900169 103.106135416 0.954149481922 -48.0779289711 0.954149481922 106.368876473)
(84.6138896246 -6.21831888211 -47.7774744687 -6.21831888211 99.8443121535 0.488774103624 -47.7774744687 0.488774103624 103.575205476)
(83.449275549 0.00515056000172 -47.688995724 0.00515056000172 98.7398230867 -5.72576827781e-05 -47.688995724 -5.7257682778e-05 102.640206933)
(84.6167348431 6.21424285941 -47.7845055721 6.21424285941 99.8334574697 -0.473320225706 -47.7845055721 -0.473320225706 103.568554435)
(88.2599898873 12.5610526413 -48.0949624353 12.5610526413 103.090984642 -0.92913773365 -48.0949624353 -0.92913773365 106.376960809)
(94.4527912636 19.1078003684 -48.6472232787 19.1078003684 108.393950181 -1.35709637427 -48.6472232787 -1.35709637427 111.087203075)
(103.056441207 25.857307957 -49.5110592537 25.857307957 115.634883921 -1.76883219262 -49.5110592537 -1.76883219262 117.594363853)
(113.551599015 32.6086874992 -50.779461247 32.6086874992 124.539954243 -2.25937322141 -50.779461247 -2.25937322141 125.595338749)
(124.158942425 39.3708630302 -52.7483243102 39.3708630302 134.907356521 -2.70982405831 -52.7483243102 -2.70982405831 134.4810005)
(129.339417214 48.5245374692 -54.1257265293 48.5245374692 143.968241596 -2.77323762703 -54.1257265293 -2.77323762703 143.53478821)
(98.8285867445 -40.3629121832 -44.105071221 -40.3629121832 119.754181817 2.95068413173 -44.105071221 2.95068413173 120.191806275)
(94.19182491 -33.0445061505 -43.2185400872 -33.0445061505 111.62020905 2.29529565007 -43.2185400872 2.29529565007 112.408804259)
(87.2168258184 -27.0248306782 -41.4550411675 -27.0248306782 103.326638498 1.8692110053 -41.4550411675 1.8692110053 105.052571661)
(79.508287566 -21.467652528 -40.4597530433 -21.467652528 96.0242088798 1.5025234716 -40.4597530433 1.5025234716 98.4079257296)
(73.1651338164 -15.9990813456 -39.9066502741 -15.9990813456 90.128661083 1.17903917397 -39.9066502741 1.17903917397 93.2011551829)
(68.6510076914 -10.6393176712 -39.6893313613 -10.6393176712 85.9128748045 0.801896670751 -39.6893313613 0.801896670751 89.5486427455)
(66.0483908371 -5.2704009168 -39.617411265 -5.2704009168 83.5205862827 0.395871667649 -39.617411265 0.395871667649 87.4351802583)
(65.2004174064 -0.00160944866517 -39.6129818455 -0.00160944866517 82.7619190928 0.00494388952911 -39.6129818455 0.00494388952911 86.7600449471)
(66.0525780211 5.26455876453 -39.6266294129 5.26455876453 83.5141415243 -0.384128233073 -39.6266294129 -0.384128233073 87.4378123816)
(68.6474478776 10.6146276676 -39.6928011799 10.6146276676 85.8687767783 -0.783333598209 -39.6928011799 -0.783333598209 89.5365147612)
(73.1658573608 15.9594352532 -39.9254907489 15.9594352532 90.0637543018 -1.16413202764 -39.9254907489 -1.16413202764 93.1723768634)