/*--------------------------------*- C++ -*----------------------------------*\
| =========                 |                                                 |
| \\      /  F ield         | OpenFOAM: The Open Source CFD Toolbox           |
|  \\    /   O peration     | Version:  2.4.0                                 |
|   \\  /    A nd           | Web:      www.OpenFOAM.org                      |
|    \\/     M anipulation  |                                                 |
\*---------------------------------------------------------------------------*/
FoamFile
{
    version     2.0;
    format      ascii;
    class       volScalarField;
    location    "0.0002049282";
    object      T;
}
// * * * * * * * * * * * * * * * * * * * * * * * * * * * * * * * * * * * * * //

dimensions      [0 0 0 1 0 0 0];

internalField   nonuniform List<scalar> 
29700
(
669.80261711
686.205757785
682.220178371
689.448207949
692.841494823
697.565988551
698.18480765
697.583778159
697.810861309
696.638977269
693.192178244
687.712440754
680.639704514
679.530890957
678.282236571
648.259668983
657.325575442
659.477669335
665.04541507
668.105935014
671.916840155
673.090886555
672.802837698
672.820806994
671.280364632
668.511971381
664.020829973
658.563240089
654.863529829
652.300268688
625.374330472
625.014281476
636.397597742
645.10210765
649.5115391
652.634657711
654.192080799
654.346154983
654.066055209
652.431276108
649.787207191
644.632021315
636.76964834
624.566029878
626.449518411
601.52595398
595.58231272
607.62089092
617.602782469
625.30831119
628.570825677
630.067937682
630.164499823
629.831722954
628.403656764
625.596550374
617.696753996
608.350684418
595.723903025
601.878617188
578.131679172
568.255525172
577.515660143
584.798993571
594.695468275
599.138617214
600.832848942
601.489039829
600.88541855
599.306626444
595.178907392
584.92200026
577.909039216
568.144957582
578.092002508
557.119296509
544.908473952
551.46077467
553.624152494
563.223549443
569.125755274
571.578883299
572.328011305
571.670924657
569.54118324
563.489310732
553.730799208
551.514297609
544.925344126
557.279733768
538.710445085
525.962632813
531.403845099
528.312513741
534.952318502
538.426598843
544.986253344
547.07582045
545.260527123
538.862364634
534.989635013
527.944315961
530.785953686
525.105150948
537.943869752
522.55236797
515.736406977
519.62477271
517.247440678
520.246654276
521.204452379
526.240581568
528.585629337
526.434440747
521.744770279
520.555714175
517.728432848
520.316489126
517.412962138
523.085144175
510.023387678
512.707051034
514.348261288
513.07401106
513.552600841
513.769765083
516.388152373
518.580017742
516.550839262
514.172841911
513.977189131
513.630290905
515.208668614
513.776716132
509.208424504
500.552737256
508.40409372
509.746471394
509.018314581
508.559367647
508.662585734
510.071107381
511.38770255
510.233049536
508.970189387
508.87518562
509.40713968
510.225378386
508.841112653
500.546229172
496.48328251
503.840133623
505.223487249
504.780236127
504.257844661
504.302658286
504.986288673
505.664401562
505.126005594
504.521476388
504.521449322
505.120313423
505.549533845
504.140193327
496.892054526
494.241059442
499.89876701
501.166108482
500.831588313
500.376925286
500.323295261
500.614907298
500.914886989
500.678134929
500.495957369
500.620361152
501.136774982
501.465623326
500.285575375
494.682147024
492.185217716
496.511866248
497.562099227
497.389126186
497.083503565
497.088107039
497.303779441
497.497179982
497.374660192
497.21245431
497.308120795
497.667043339
497.836994017
496.792176948
492.525033338
490.239082315
493.633154542
494.827794417
495.149031
495.447224547
496.022964098
496.753586398
497.128979084
496.815504658
496.176100003
495.619833653
495.324071836
495.037866494
493.97584109
490.734555106
488.741519497
491.495219063
493.914883989
495.384110786
496.89593387
498.65147282
500.49505317
501.374386659
500.548558741
498.709282663
496.971037632
495.422325498
493.868131585
491.218130912
488.937651031
487.220521717
489.560652311
493.38278701
497.0866918
500.886285546
504.889284784
508.171418546
509.259339014
508.234107152
504.945856335
500.928321778
497.059579101
493.235052103
489.614463855
488.38390601
488.463841179
488.416334114
492.713178623
499.458982368
507.629611409
515.914967652
521.84384844
523.822469028
521.912082818
516.020163784
507.719211758
499.410572944
492.735564279
489.131146985
490.169588121
492.630724615
492.237974952
497.436180339
508.10181283
521.770705221
534.467514821
542.444907626
545.048614213
542.586530447
534.680723508
521.899475303
508.160961806
497.649796045
492.991781954
493.720963241
496.758557437
499.098657001
507.977830426
523.316981942
539.962894262
551.674588735
557.015226058
558.387356457
557.19869378
551.889373096
540.164437829
523.424570195
508.210379089
499.645333076
497.372808125
500.758479381
507.489256089
521.687508265
539.854924279
553.072122563
556.286636183
552.845658981
550.911689922
553.17270736
556.547794435
553.307153651
540.042636682
521.882318678
507.84166618
501.196098455
504.870768421
515.84626498
534.324309017
551.534787165
556.290650601
547.113807292
535.205048569
530.71717158
535.358865776
547.290118433
556.34325469
551.68369627
534.538999589
516.045630863
505.160802324
508.106853498
521.682485835
542.204628589
556.789972126
552.832456555
535.128926332
519.249656398
514.063473556
519.367258634
535.258200023
552.887801992
556.956639779
542.556007997
522.092608041
508.480002159
509.123307925
523.610208058
544.728987949
558.021186182
550.743999433
530.510784014
514.028077102
509.615868086
514.071941805
530.665933624
550.826337246
558.293324481
545.119358036
524.166717487
509.671433626
508.08680275
521.718279699
542.292547877
556.806388328
552.905263966
535.111723363
519.26230286
514.043785604
519.371191557
535.342729052
553.020730297
557.087955158
542.670105503
522.116923149
508.47168919
504.943822972
515.984892541
534.513496813
551.661063394
556.342832179
547.195262427
535.299503342
530.698240923
535.347846152
547.378294323
556.630566639
552.024242746
534.716787056
516.121513405
505.09890562
500.920974187
507.869066436
522.079138781
540.249314755
553.412922834
556.52291824
553.065720975
550.897377919
553.111992029
556.764383319
553.585820622
540.205867996
521.938971995
507.851150928
501.159905731
497.173682007
499.956344319
508.825065474
523.924886742
540.363484137
551.849054881
557.087372835
558.278168
557.09809815
552.04964033
540.137663864
523.214355172
507.986707111
499.36255281
497.153479935
493.526863153
493.58119466
498.56785208
508.85124284
522.173921246
534.629215439
542.475353226
544.973071136
542.511946392
534.658011328
521.837251619
507.92624836
497.273428488
492.380742372
493.025584703
489.619156622
489.645860208
493.482824142
499.945107957
507.877547734
515.985997487
521.823351272
523.794617168
521.885201099
515.950175585
507.665675242
499.182005938
492.303120459
488.228970923
489.029918503
486.956703339
489.595689966
493.422398378
497.170212159
500.875968742
504.884066407
508.13390213
509.208150287
508.160282052
504.853860792
500.926159084
496.922860833
492.907184172
489.047093736
487.332876719
487.346723273
491.311987874
493.857341897
495.359116903
496.836199449
498.602614957
500.472871028
501.362479938
500.528035382
498.711778964
496.957296409
495.416772431
493.783644865
491.415526531
488.6477843
490.457050929
493.651485961
494.800021358
495.149202195
495.461432716
496.041979256
496.715180775
497.115671073
496.800206881
496.115098058
495.552818726
495.330333767
495.0819715
494.13220573
490.794518109
492.310793838
496.631959434
497.599730992
497.409289196
497.114127303
497.087185028
497.286873729
497.467220521
497.325623386
497.166706982
497.219281275
497.673847131
497.969242185
497.064524522
492.784947982
494.301799534
499.956630935
501.194581596
500.877944491
500.390604898
500.277796226
500.545694024
500.843888439
500.599540627
500.400736731
500.585850273
501.249773903
501.714544436
500.660821815
495.052432725
496.43887151
503.766353348
505.185569172
504.765162701
504.244711407
504.280632978
504.937740968
505.575430534
505.001197725
504.423015491
504.512065662
505.249175124
505.827276874
504.571445222
497.381053679
500.353547632
508.243051269
509.635841357
508.881774858
508.469284787
508.677956281
510.078208176
511.29972311
510.057226931
508.823680737
508.898671672
509.614522252
510.553934645
509.370089875
501.330942098
509.551026117
512.47794727
514.14303801
512.826055743
513.368261708
513.845872827
516.432571823
518.547513828
516.377877779
514.001143587
513.993906447
513.800124282
515.507737019
514.280424823
510.205899994
522.403546429
515.37374606
519.336352103
516.954193321
519.969071017
521.409408515
526.41620707
528.638226599
526.293661667
521.496429083
520.454672727
517.717449661
520.576697195
517.892083907
523.666098454
538.645144257
525.651539607
531.092315011
527.75638876
534.521754056
538.65693451
545.320531304
547.192714132
545.125667109
538.600848929
534.720728486
527.800235843
531.064654607
525.754250974
538.436885809
556.88317373
544.512534114
550.961815379
552.917356341
562.843777553
569.374933772
571.963064801
572.526400807
571.803702327
569.279218035
563.163657604
553.324798689
551.522485351
545.341895233
557.676351425
577.911986663
567.569638963
576.857052768
583.913121402
594.686093856
599.24682095
600.983870358
601.487278895
600.861496479
599.038510354
594.476631991
584.315709594
577.254229664
568.299937098
578.377482109
601.318051123
594.155834618
606.602373033
616.701862761
625.256891515
628.47514248
629.889988766
630.067733173
629.886190341
628.39058584
624.952511515
617.630389782
606.834110472
595.041888272
601.76653998
625.799991144
623.078511786
635.528650237
644.61327546
649.877108934
652.560013334
654.061955979
654.216088674
654.010157985
652.818198424
649.057799526
645.473135053
635.428013408
624.250213995
625.784236333
650.720621134
655.171526063
659.622986405
664.639034639
668.728709919
671.467545205
672.914789243
672.719851473
672.847322414
672.500838519
667.748160592
666.333716541
661.319669352
658.060905567
649.409938339
675.997089053
684.397097291
683.906345688
689.161521291
693.972110183
697.11301849
698.160495341
697.60214188
697.890205826
698.567617412
692.924965409
691.816075836
687.164204958
690.228566611
670.89189338
1051.57632241
1071.2707414
1092.3874412
1116.42593021
1137.45244132
1154.69638872
1168.15682132
1172.9902277
1168.14593111
1154.64593105
1137.8255451
1116.55699152
1093.0959486
1070.25293027
1048.09812758
997.603376183
1014.56753266
1032.83328202
1052.9780211
1070.82529377
1085.77921563
1096.40425531
1100.1057111
1096.4243633
1085.81382143
1071.14955811
1053.08618455
1033.06074861
1013.54778068
995.554602329
936.604047276
950.100351452
967.523366435
985.863060228
1001.58670015
1014.49815902
1023.1748013
1026.12822088
1023.19726569
1014.59919363
1001.90619595
986.120872524
967.679552194
949.991398634
936.300732696
872.484435918
882.521141721
897.913511999
914.722247548
928.423946767
939.349084892
946.441551724
948.935795167
946.605324759
939.623527703
928.810440261
915.076098593
898.15541384
882.600754457
872.512391862
809.124540416
816.173229719
827.571732247
841.450347919
852.86585277
861.569110807
867.104788138
869.06584208
867.230243393
861.819673003
853.164402184
841.804655852
827.785303585
816.241629803
809.090632763
749.211086184
753.291669926
759.965512647
769.578280185
777.87980245
784.493085545
788.377779872
789.758689853
788.548771453
784.755631518
778.165410029
769.771460456
760.028558558
753.220083728
749.047313471
694.66188298
695.72511456
698.321556841
702.902872382
707.688009431
712.249949965
714.973772327
715.921865689
715.156257288
712.522775953
707.913303258
702.984418471
698.249466877
695.443211177
694.165459845
646.606620716
645.447000943
645.284181752
645.846837067
647.350823156
649.210745077
650.717052466
651.134988969
650.913967682
649.440987099
647.50503697
645.767375804
645.027605143
645.111660245
645.673189401
606.434792963
603.326664727
600.630910019
598.509372224
597.433574988
596.932422288
597.090235793
597.280773649
597.25124715
597.160673286
597.607752849
598.636001056
600.798474385
603.742967734
607.187065944
574.329354036
569.806543882
565.367727606
561.757614504
559.068931702
557.347192129
556.681482041
556.647852814
556.799291624
557.539780431
559.252348945
561.896066055
565.472882513
569.808182267
574.184032142
547.258005868
542.715729175
537.838177403
533.785057607
530.528818022
528.418441221
527.422042182
527.252025699
527.527340189
528.57607393
530.701695622
533.932357256
537.967154158
542.757089514
547.298559603
526.376175486
521.950138211
517.290973069
513.370908491
510.298231311
508.32431553
507.36201725
507.144676674
507.429774047
508.44359881
510.440035486
513.495101031
517.377533674
521.970126864
526.451376504
510.875475132
506.882272832
502.872668906
499.685578691
497.451795706
496.178385194
495.645095906
495.556434281
495.712329316
496.298320352
497.612787366
499.843371942
503.002311912
506.968725494
510.9904436
500.113290427
496.975758295
494.165590829
492.464864379
491.795109703
491.843964974
492.184454674
492.393651241
492.235662018
491.949797764
491.932776895
492.613895303
494.315428792
497.086380683
500.172339799
493.438183172
492.03106416
491.269658057
491.840413723
493.455192607
495.49039908
497.014115211
497.592374833
497.059406033
495.57358589
493.547062197
491.916339644
491.376104388
492.347127152
493.921878443
491.97844739
491.721438721
493.388772528
497.084683539
502.141818519
507.3174219
511.323312137
513.024241604
511.33907761
507.38844519
502.190127675
497.110596441
493.456461745
491.892249457
491.966521516
491.706262626
494.144362655
499.394570198
507.708198144
518.439248592
529.464610875
537.922029741
541.130534133
537.909072339
529.48159852
518.471844008
507.7291973
499.476887906
494.400697742
491.987647498
493.060087787
499.203545708
509.911255303
525.747437132
544.91912537
563.632165195
577.178229344
582.049036672
577.16815435
563.646715502
544.974688376
525.827451539
510.137703885
499.704180986
493.761366631
496.742451653
507.423312256
525.62947977
551.042033736
579.207854346
603.145068696
617.750169568
622.353721957
617.767235118
603.251528412
579.312307687
551.220925196
525.993509468
508.061193961
497.47027988
501.934578713
518.254556362
544.824397925
579.191129147
611.206236078
630.984907373
638.423067907
639.669517219
638.522873478
631.21915962
611.43288124
579.420088401
545.210985802
518.801545142
502.488260399
507.220507078
529.415606577
563.617797475
603.031248454
630.868911408
638.532799134
634.188231195
630.850436339
634.323171138
638.824782607
631.202385944
603.35247822
563.92555466
529.822634473
507.690454842
511.309598795
537.94507211
577.158746906
617.540150587
638.154441559
634.0700477
620.725161477
614.379186989
620.852975969
634.309410455
638.488859912
617.920495194
577.49109519
538.313992424
511.760359684
513.010761773
541.132018294
581.962278178
622.084162582
639.386282942
630.783203943
614.359835419
606.574572876
614.503578957
630.95523563
639.682975811
622.486271069
582.439981583
541.567892627
513.438973011
511.274630732
537.834486535
577.027902731
617.532456828
638.244169778
634.261712773
620.923120103
614.574635824
620.991989366
634.431023755
638.598509638
617.977012953
577.525548979
538.287266209
511.698403837
507.210398743
529.348559667
563.497827854
603.080710246
631.083233079
638.84168344
634.430398573
631.052643421
634.482413506
639.035516949
631.419032837
603.432008964
563.939297205
529.713415305
507.587780379
502.113625213
518.353170426
544.785506315
579.237887446
611.421144114
631.218525398
638.519575293
639.743078366
638.655827778
631.390367259
611.599758013
579.603044259
545.312287604
518.641551026
502.186375575
497.110579705
507.553865527
525.49591559
550.954209229
579.27509356
603.207589716
617.737499217
622.367439648
617.864089976
603.347132701
579.545530793
551.631455998
526.360476184
507.998728012
497.020833794
493.364726225
499.072170242
509.560684606
525.491761485
544.832835302
563.592965764
577.143479399
582.081163639
577.234446454
563.720762028
545.193796688
526.294313883
510.649151941
499.820361652
493.303618144
491.598129142
493.772905451
499.082281037
507.573134338
518.397203524
529.43848899
537.907990911
541.156792829
537.923582539
529.441019429
518.45125159
507.852519675
499.741665947
494.442294534
491.778742771
491.667896058
491.597714094
493.402378846
497.138566547
502.177585236
507.313111532
511.309578085
513.012225507
511.296660332
507.280129781
501.944619515
496.830709307
493.197507758
491.724693696
491.442255016
494.763305414
492.308287537
491.380666267
491.873976817
493.433106252
495.452857519
496.988422943
497.56354541
497.003911966
495.48904695
493.42087851
491.843045954
491.348728796
492.31098442
494.033990973
500.125800953
497.055800782
494.184006116
492.436132708
491.723701433
491.758961287
492.112426155
492.327920833
492.153857165
491.843485568
491.830201857
492.597714591
494.425257244
497.309304784
500.42692086
510.855523598
506.830496691
502.814215275
499.608224062
497.360635407
496.077872311
495.535246534
495.439079387
495.582774816
496.16559196
497.493003747
499.833872733
503.135932633
507.249665317
511.357765017
526.305932049
521.839292801
517.156234442
513.224045179
510.173985019
508.219276007
507.249599337
507.017537192
507.276966929
508.285940827
510.341828165
513.519085824
517.562808007
522.323201308
526.901444809
547.127046701
542.556854624
537.670046883
533.611750769
530.402139473
528.345593429
527.369665834
527.162866836
527.370707024
528.405107001
530.593183003
533.970024258
538.200941074
543.190127163
547.8711105
574.178449685
569.613434777
565.140742112
561.542998354
558.924163125
557.299497264
556.655830334
556.574431392
556.641943087
557.342293176
559.11730639
561.922934957
565.738795513
570.300360081
574.825633628
606.386955379
603.094352238
600.361634927
598.252300727
597.280247962
596.925170589
597.127461137
597.235550827
597.071149459
596.912722291
597.409701468
598.604339229
601.072647957
604.260117361
607.7548095
646.452594834
645.185961823
644.999970089
645.553262107
647.240844572
649.250433266
650.808138164
651.113146654
650.714486259
649.151387397
647.224083991
645.675162218
645.283818793
645.666763985
646.440037852
694.434550077
695.437410748
697.953542526
702.626504621
707.581988602
712.301503658
715.054202276
715.916828877
714.98174163
712.175613948
707.560698897
702.766756206
698.387932739
695.990551829
694.973568811
748.963058308
752.918524792
759.503014614
769.239455615
777.763546648
784.534353624
788.405440709
789.71183743
788.348507388
784.385528391
777.71424101
769.449815947
760.013646975
753.713778613
749.835051523
808.878149084
815.72449053
827.05949902
841.196487017
852.824835397
861.62982985
867.140884356
869.04715356
867.089039339
861.505421095
852.735010126
841.406829194
827.551302138
816.641875174
809.8650252
872.297065754
882.017855617
897.48245065
914.65696983
928.519605746
939.40513458
946.457830664
948.867527542
946.479590141
939.34815226
928.27935897
914.691015955
897.966619995
883.321004898
873.4225326
936.593424827
949.555714825
967.370542658
985.875073127
1001.76141749
1014.44515051
1023.08414816
1026.02517042
1023.08173149
1014.56440614
1001.40664533
985.979603231
968.144974909
951.652182529
938.008393848
997.738406616
1013.92180612
1033.178792
1053.1689069
1071.17636754
1085.70535119
1096.32965149
1099.93320156
1096.2665479
1086.04644594
1070.72309081
1053.36937964
1034.1076339
1018.07684213
1000.5882393
1051.10079082
1070.82018859
1093.01943147
1116.49998216
1137.77105577
1154.55965781
1168.00460507
1172.72031453
1167.89304487
1154.99529107
1137.04577746
1116.62061533
1093.34015392
1076.84122675
1057.11566316
1291.08021884
1325.80668679
1361.14208002
1395.96131447
1427.20501967
1452.37190107
1469.810634
1476.02816662
1469.87913008
1452.4858654
1427.43562503
1396.25196856
1361.79975266
1326.72992375
1291.41574398
1214.31109954
1243.90096637
1272.66754557
1303.19179554
1331.02463939
1353.92959532
1369.88020334
1375.60953114
1369.93361586
1354.05490695
1331.25847938
1303.43147493
1272.95347098
1243.16984226
1212.10015582
1130.12590458
1154.31253045
1178.89082959
1205.05926677
1229.06603563
1248.9572594
1262.61988194
1267.48819791
1262.68420251
1249.11166837
1229.38113958
1205.37880212
1179.06669301
1153.71911919
1128.67584049
1041.15075473
1059.43578091
1080.25907543
1102.07064431
1121.77419239
1138.07188387
1149.0955237
1153.02737478
1149.20896315
1138.30269884
1122.13375469
1102.42491321
1080.46419323
1059.1538528
1040.5268661
951.693562719
963.930950712
979.892261002
996.764944809
1011.87868703
1024.06721365
1032.19168236
1035.07216812
1032.31365216
1024.33047969
1012.24729859
997.12493695
980.136374361
963.918600292
951.532032783
865.623949005
871.961025479
882.10641192
893.18838149
903.412415065
911.462202394
916.63578691
918.503971883
916.78962999
911.719763175
903.742035664
893.47010371
882.265038553
871.969179339
865.53611964
786.091023533
787.094654072
791.559567461
796.407047665
801.766224424
805.936563016
808.521322923
809.457881606
808.675253207
806.170173395
802.005646019
796.578138266
791.622255244
786.955851645
785.859763869
715.022614585
712.446546001
712.403807295
712.362650257
713.428773829
714.455794337
715.247416581
715.529285928
715.400897307
714.644030258
713.580755054
712.358210119
712.24206287
712.208163883
714.229109475
653.854725527
649.668104561
645.981703941
642.46940687
640.182285251
638.680986539
637.960876832
637.777494449
638.074622225
638.854415356
640.340265237
642.562567825
646.067613905
649.921371981
653.894559161
604.199394325
598.884562008
592.732720468
587.039132562
582.604862142
579.46521552
577.706500002
577.211346999
577.833385876
579.643359487
582.765524932
587.156234365
592.826404562
598.984873364
604.138187317
564.350968611
558.514715904
551.373062166
544.860623976
539.592732457
535.867110296
533.719190935
533.085334274
533.823046811
536.026002795
539.73784799
544.964789571
551.440630558
558.544180362
564.351077614
533.529634992
527.751427167
520.759097336
514.514395892
509.521793231
506.103529452
504.15689126
503.586818004
504.235561978
506.222205456
509.645254651
514.602602109
520.814352887
527.748139351
533.551941857
510.690142633
505.65931982
499.760567171
494.681977034
490.90913471
488.566577702
487.371840102
487.057164287
487.43376688
488.655802298
491.008474752
494.759456332
499.806212693
505.66753863
510.745629014
495.050590409
491.422523236
487.385220501
484.336779207
482.654851955
482.126596683
482.189034455
482.320470636
482.245585902
482.223310552
482.758829818
484.420617735
487.433580464
491.453349098
495.111036115
486.075268828
484.234887077
482.886795793
482.720573423
483.928136231
485.853703659
487.5066202
488.187063859
487.565923097
485.950061597
484.025715783
482.815496544
483.019115024
484.454645241
486.263497789
482.678548834
482.971512888
484.989942285
488.691487622
493.916591942
499.462826728
503.65357216
505.290587346
503.717683051
499.576598558
494.021265042
488.808606147
485.19471615
483.240798737
482.815082169
483.138347087
486.262698868
492.401408909
501.479754914
513.00420263
524.876313606
533.889715097
537.304931492
533.940024429
524.970605817
513.123658381
501.647327252
492.64243595
486.494123589
483.166310895
484.980004956
492.391913567
504.665573029
522.273892863
543.823958934
565.458155382
581.57745553
587.556732941
581.590698162
565.488675033
543.942214758
522.487206835
504.96159527
492.695420049
485.234876031
488.492527765
501.358446762
522.211465343
551.677681751
586.195381945
618.193521414
639.88328019
647.406506948
639.870178473
618.215721732
586.333760568
551.962800083
522.619237086
501.839144978
488.996710774
493.668008002
512.818077326
543.7323064
586.183675139
631.514499208
666.871392782
686.415381745
692.210963351
686.430691984
666.975182223
631.696943995
586.515584718
544.210631876
513.401636646
494.276351781
499.242410769
524.713390188
565.397718217
618.179730255
666.850543475
695.700927239
705.545662166
707.02165461
705.652289213
695.907531459
667.11304949
618.511072285
565.852464863
525.303671646
499.868198126
503.476787905
533.78107224
581.563322742
639.871050153
686.302730863
705.454263374
705.645051662
703.310818087
705.724763117
705.710621257
686.668454574
640.255969949
582.007944251
534.313932912
504.07440678
505.114514663
537.197210592
587.517189689
647.343260836
692.044970771
706.945317876
703.331678097
699.513561347
703.395276674
707.172006561
692.494616829
647.8168988
587.973647367
537.68018402
505.642901498
503.522556429
533.771760096
581.459280899
639.756033946
686.283223798
705.565771836
705.777376888
703.484469551
705.873391744
705.875351355
686.768097677
640.260402033
581.945676206
534.247111155
504.027733282
499.356817356
524.774349774
565.271777141
617.99825987
666.786745394
695.801782291
705.713218182
707.229738355
705.890328832
696.12328898
667.233439221
618.543008872
565.791909834
525.144983716
499.741548674
493.895701408
512.985581262
543.630308832
585.937638665
631.350331859
666.851737164
686.475627422
692.372470768
686.651033161
667.173985439
631.934578527
586.749665449
544.244150279
513.186914275
494.039643289
488.734648453
501.519117837
522.101236003
551.373404904
585.972808747
618.08246577
639.898105518
647.515770269
639.997531225
618.395937925
586.704959792
552.372199882
522.742802315
501.652649976
488.781816383
485.151158984
492.604718981
504.706593479
522.14047617
543.695624516
565.379140193
581.583246878
587.608503947
581.629725967
565.560922743
544.12100647
522.685892521
504.904535572
492.443075987
485.140876899
483.380456987
486.664446894
492.638675758
501.56706458
513.046313651
524.908014462
533.899595562
537.281213862
533.856651371
524.833668339
512.975210898
501.533917979
492.384649401
486.099120544
483.151717973
483.132683459
483.399333763
485.154137179
488.731670643
493.942259617
499.460093052
503.619474386
505.207139963
503.572170318
499.353404792
493.739376285
488.597685936
485.040770031
483.108136259
482.766502865
486.595232325
484.390049369
482.837047893
482.636284855
483.843105344
485.766451632
487.419675498
488.063932289
487.404715911
485.771122262
483.882459231
482.77582201
483.10567212
484.628121781
486.512538124
494.946610852
491.350645126
487.272277631
484.20443238
482.524207851
482.005765342
482.076681879
482.185966964
482.07758097
482.0550049
482.645426357
484.435837025
487.608291803
491.745606096
495.407997269
510.669845834
505.57083818
499.627351725
494.523233921
490.758597581
488.438373428
487.254231904
486.92265155
487.274943854
488.507113404
490.922899949
494.797067791
500.004877264
506.002628806
511.164052223
533.463067948
527.638996001
520.620603833
514.361608486
509.390757906
506.008851851
504.083276393
503.482070607
504.10175146
506.084297447
509.567239826
514.665295226
521.062153002
528.146934377
534.048405669
564.254262136
558.391591457
551.220577355
544.715737059
539.484760946
535.823685992
533.700297472
533.024576617
533.702796299
535.885138798
539.644659822
545.01510549
551.694579788
558.994709777
564.929247871
604.130424518
598.747219835
592.566144186
586.886343551
582.522824699
579.46222416
577.702363075
577.139391914
577.680085625
579.452633769
582.611098912
587.145236544
593.05907359
599.453468427
604.746636413
653.770469083
649.476443683
645.771377887
642.296889553
640.121904972
638.701897131
637.982718931
637.715821323
637.921713376
638.628088172
640.112089528
642.478578726
646.267145609
650.391977309
654.544023902
714.864117449
712.234756632
712.184228168
712.194671016
713.392239223
714.517951103
715.316353085
715.507723829
715.246448623
714.389117518
713.286566793
712.197594418
712.390495858
712.691205837
714.975181165
785.861473761
786.824736733
791.270646209
796.22841057
801.713165727
805.98635128
808.592175629
809.457967458
808.547441727
805.888244629
801.663913299
796.328004915
791.670740382
787.434448546
786.578477602
865.343345476
871.626380477
881.805958872
893.036288012
903.422220732
911.5348133
916.691890484
918.47815871
916.658828937
911.446319195
903.357244251
893.180274397
882.284580973
872.517737362
866.337797817
951.395240651
963.609802718
979.702670277
996.757990132
1011.97434527
1024.12707608
1032.1994218
1035.04110168
1032.2003979
1024.08671617
1011.88472636
996.886707356
980.260143637
964.813157939
952.680232074
1040.89219306
1059.22210398
1080.26820992
1102.20301234
1121.89018529
1138.07044957
1149.02799322
1152.91280066
1149.06162325
1138.1238655
1121.79333283
1102.36508436
1080.98428228
1061.02430265
1042.70931023
1129.94462843
1154.31352541
1179.18211608
1205.26022626
1229.21356962
1248.8878891
1262.48794035
1267.30961383
1262.50636917
1249.03005279
1229.07630262
1205.45976847
1180.17247482
1156.96233617
1132.80655194
1214.2205649
1244.16409887
1273.17106857
1303.37852601
1331.09824149
1353.78452181
1369.64184738
1375.30727276
1369.67656789
1353.97069839
1331.05251399
1303.57914647
1274.0495159
1247.35571819
1218.50353729
1290.89105038
1326.22287946
1361.4740759
1395.94645869
1427.101288
1452.13817358
1469.50843185
1475.63817083
1469.5453999
1452.25175502
1427.02218863
1395.89672364
1361.4263619
1327.48218208
1295.2914398
1374.98982957
1406.93410887
1438.92128171
1469.01464855
1495.36410058
1516.16331728
1529.58620092
1534.30415215
1529.61963876
1516.21801005
1495.45531011
1469.28233571
1439.45152803
1407.93338547
1375.96365964
1302.40427287
1331.97557461
1361.32291482
1390.25665155
1416.01218721
1436.58676473
1450.09318289
1454.85947316
1450.11478355
1436.64926569
1416.11487296
1390.48539932
1361.72715493
1332.34430981
1302.28569395
1221.04557433
1247.45382156
1273.22057923
1299.2311659
1322.81504134
1342.09687168
1354.94783936
1359.48645052
1354.96531657
1342.15649999
1322.97282407
1299.43269351
1273.39214964
1247.2902487
1220.36553089
1132.37152716
1154.37741267
1176.28462337
1198.54936791
1218.74343827
1235.42251455
1246.59452497
1250.55921611
1246.65271986
1235.53637699
1218.93419345
1198.72838142
1176.3222755
1154.04695221
1131.71037499
1039.79769076
1056.21260973
1073.45038593
1091.06156481
1106.92902368
1119.94694177
1128.63965573
1131.71644248
1128.70962286
1120.08599097
1107.12800803
1091.23398637
1073.48636409