/*--------------------------------*- C++ -*----------------------------------*\
| =========                 |                                                 |
| \\      /  F ield         | OpenFOAM: The Open Source CFD Toolbox           |
|  \\    /   O peration     | Version:  2.4.0                                 |
|   \\  /    A nd           | Web:      www.OpenFOAM.org                      |
|    \\/     M anipulation  |                                                 |
\*---------------------------------------------------------------------------*/
FoamFile
{
    version     2.0;
    format      ascii;
    class       volVectorField;
    location    "0.00574951018";
    object      qWall;
}
// * * * * * * * * * * * * * * * * * * * * * * * * * * * * * * * * * * * * * //

dimensions      [1 0 -3 0 0 0 0];

internalField   uniform (0 0 0);

boundaryField
{
    InLet
    {
        type            calculated;
        value           uniform (0 0 0);
    }
    OutLet
    {
        type            calculated;
        value           uniform (0 0 0);
    }
    Wall
    {
        type            calculated;
        value           nonuniform List<vector> 
10990
(
(104.8617 -19.114673 0.7627895)
(102.31588 -15.908809 1.0481983)
(99.51126 -13.02336 1.2742674)
(98.118158 -10.446136 1.0826262)
(97.727814 -7.8316384 0.95436438)
(98.467296 -5.0250796 0.8498689)
(98.995584 -2.3568732 0.77779437)
(99.103091 0.59984395 0.61438568)
(99.123431 3.513772 0.59332581)
(99.509231 6.3819966 0.62252803)
(100.36452 9.8866908 0.36341592)
(101.93977 13.112235 0.35651096)
(103.65079 16.553007 0.29954246)
(106.2904 19.334817 0.40002183)
(109.59136 21.715906 0.56855509)
(112.77014 23.133082 0.88929297)
(115.88068 22.807734 0.85700126)
(117.18425 20.74695 0.59352498)
(104.58075 -18.942387 1.8568963)
(101.8993 -15.704702 2.0336637)
(98.638393 -12.853269 2.3003063)
(97.040652 -10.32954 2.4043408)
(97.198256 -7.856685 2.4922139)
(98.572223 -5.0933231 2.3917004)
(99.526962 -2.3581785 2.3117499)
(99.594225 0.56549845 2.4135567)
(99.755443 3.3894838 2.4162425)
(99.905076 6.3273519 2.3156388)
(101.04371 9.721399 2.0872752)
(102.78403 13.072397 1.8604772)
(104.91343 16.536203 1.8004519)
(107.62579 19.538586 1.621172)
(110.31282 21.831121 1.7264866)
(112.6599 23.143226 1.7563117)
(115.1847 22.739162 1.6333871)
(116.47593 20.734284 1.3987936)
(103.79736 -18.581124 2.8838667)
(101.1385 -15.509102 3.0729539)
(98.197161 -12.782345 3.3819738)
(96.782068 -10.340292 3.6567118)
(97.337821 -7.8838022 4.1499948)
(98.811206 -5.1773559 4.3691322)
(99.819677 -2.3663237 4.5462633)
(100.49905 0.76614641 4.7737578)
(100.21859 3.3077674 4.7500143)
(100.55318 6.0408364 4.6627701)
(102.15448 9.6620485 4.3890711)
(103.83576 13.233215 4.0426359)
(105.49668 16.670214 3.6576055)
(107.82119 19.672749 3.1991464)
(110.29558 21.907984 2.894146)
(112.7657 23.07893 2.5675284)
(114.83039 22.829853 2.316413)
(115.97009 20.9004 2.1557187)
(103.024 -18.31493 3.7642122)
(100.63765 -15.344595 4.0971802)
(97.882326 -12.703929 4.4579853)
(96.83479 -10.237712 5.0887086)
(97.32567 -7.8269698 5.9234622)
(98.389635 -5.0622797 6.5238243)
(99.135927 -2.1050287 7.0813534)
(100.46486 0.6726334 7.264216)
(101.76698 3.2558987 7.2309455)
(102.00321 6.1572844 7.3182815)
(103.42295 9.7048759 7.2302975)
(105.33912 13.28802 6.6473967)
(107.0957 16.897687 6.0065882)
(108.79573 19.786021 5.1151414)
(110.68294 21.941176 4.414344)
(112.85686 23.096542 3.6318772)
(114.6113 22.934452 3.1849094)
(115.64969 21.001394 2.9019177)
(102.59302 -17.968943 4.7994864)
(100.405 -15.182232 5.1631562)
(98.12643 -12.605882 5.6766674)
(97.23063 -9.829664 6.8307807)
(97.436567 -7.5498568 7.820542)
(98.412228 -4.7429354 8.7829809)
(99.094647 -1.7857109 9.6181641)
(101.28287 0.79139723 10.088185)
(103.16127 3.5082971 10.387489)
(103.04305 6.3450873 10.394394)
(104.20911 9.591121 10.226367)
(106.39365 13.084916 9.7243754)
(108.66666 16.731528 8.7952017)
(110.20432 19.89372 7.3920037)
(111.41685 21.97966 6.1301992)
(112.82079 23.115649 4.9256714)
(114.39723 22.94705 4.2351542)
(115.48229 21.149823 3.7720808)
(102.33537 -17.643292 5.8774631)
(100.54904 -14.983214 6.242401)
(98.847441 -12.463478 7.2650649)
(97.79372 -9.5093245 8.7431834)
(97.433295 -6.897903 10.459596)
(97.801233 -4.0380131 11.638038)
(98.42687 -1.4563153 12.491559)
(99.884129 1.1662248 13.081123)
(101.9568 3.6923073 13.54402)
(102.53073 6.1553583 13.467833)
(103.97266 9.1251484 13.113038)
(106.19383 12.486583 12.455746)
(108.9032 16.222729 11.417351)
(110.87752 19.423237 9.8457701)
(112.03518 21.801778 8.0269388)
(113.18116 23.139239 6.3777016)
(114.6519 23.016959 5.3167824)
(115.57332 21.279205 4.4882804)
(102.93203 -17.295591 7.1730953)
(101.25323 -14.681399 7.7500276)
(99.987307 -11.81501 9.394625)
(98.879358 -8.8168739 11.197275)
(97.810146 -5.9129341 12.693767)
(97.375804 -3.2053019 13.81711)
(97.476971 -0.54126416 14.786661)
(98.897762 1.6800664 15.613149)
(100.22596 3.9843782 15.978561)
(100.44148 6.1594284 15.949673)
(102.2193 8.7387541 15.782961)
(104.58352 11.774061 15.332954)
(107.60847 15.221788 14.110163)
(110.39546 18.580487 12.34307)
(112.28103 21.060662 10.401466)
(113.6692 22.628574 8.2949691)
(114.9943 22.910906 6.444453)
(115.77344 21.444862 5.5484345)
(103.71193 -16.787304 8.6105773)
(102.2319 -14.128981 9.606938)
(101.65447 -11.067089 11.887586)
(100.6443 -8.0119422 13.599492)
(99.50555 -4.8961191 15.040171)
(98.724996 -2.224438 16.114944)
(98.399648 0.34200966 16.674824)
(99.424225 2.6138675 17.307848)
(99.460827 4.5489584 17.687368)
(99.148153 6.5567205 17.726464)
(101.09934 8.5955686 17.667499)
(103.72788 11.266977 17.287491)
(106.73747 14.292537 16.321485)
(109.49482 17.443349 14.758979)
(111.77159 20.190621 12.645402)
(113.62606 22.072725 10.336777)
(115.11515 22.844039 7.944703)
(115.73309 21.665823 6.6459107)
(104.37365 -15.881142 10.490108)
(103.40885 -12.955294 12.31887)
(103.4483 -10.010387 14.414655)
(102.75509 -7.0184914 16.312233)
(101.65604 -4.0475563 17.329526)
(101.11849 -1.5937299 18.182874)
(101.04944 0.7699987 18.629167)
(101.67674 3.1391077 19.064891)
(101.24008 5.0401743 19.154388)
(100.90931 6.9650497 19.075138)
(102.29513 8.9101556 19.018489)
(104.57509 10.980039 18.712167)
(106.8586 13.575657 17.863052)
(108.84845 16.461614 16.275114)
(110.94621 19.034465 14.514919)
(112.6791 20.90564 12.418578)
(114.42624 22.174791 10.032714)
(115.21201 21.861028 8.051631)
(105.54501 -14.967117 12.952044)
(105.5613 -12.488768 14.909847)
(105.8333 -9.6298136 17.007576)
(105.17275 -6.8062774 18.553065)
(104.09427 -3.8437774 19.436364)
(102.82319 -1.5252343 19.9163)
(103.63451 0.91322564 20.222828)
(104.04597 3.2971684 20.442548)
(103.9248 5.3795852 20.435783)
(103.84906 7.2628215 20.411978)
(104.53146 9.2447125 20.175715)
(106.18129 11.248614 19.656485)
(107.97173 13.589992 18.830525)
(109.60504 16.34494 17.529944)
(111.20107 18.676123 15.670661)
(112.48725 20.277131 13.71895)
(113.56395 21.400697 11.407564)
(114.4018 21.940984 9.5057897)
(106.93543 -17.04142 12.442238)
(106.28587 -18.290509 10.524258)
(105.71557 -19.097983 8.8366774)
(105.14845 -19.412368 7.5978372)
(104.64433 -19.619427 6.2867767)
(104.47186 -19.957862 5.1231064)
(104.98261 -20.32372 4.0268074)
(106.01919 -20.581116 2.9609674)
(106.60897 -20.831579 1.7593854)
(107.284 -21.106528 0.50761791)
(107.92441 -18.577165 13.000143)
(107.23146 -19.616532 10.991088)
(106.61156 -20.243627 9.3437186)
(106.59947 -20.666165 7.9622789)
(107.04718 -21.048924 6.557819)
(106.99948 -21.300619 5.3015448)
(107.62358 -21.580618 4.1358445)
(108.6516 -21.891577 2.9517113)
(108.90096 -22.116822 1.6583738)
(109.55384 -22.323265 0.32907738)
(108.36412 -19.485979 13.500346)
(107.70076 -20.600178 11.318308)
(106.99769 -21.048355 9.7253689)
(108.4519 -21.614728 8.4028379)
(109.48673 -22.144612 6.9276854)
(110.00159 -22.499824 5.6432738)
(110.82042 -22.811808 4.2545999)
(111.50883 -23.219254 2.8730376)
(111.28024 -23.275387 1.4235086)
(111.41569 -23.368901 0.10112084)
(109.02802 -19.977365 13.388101)
(108.07017 -20.717378 11.277982)
(107.49314 -21.180844 9.5644264)
(110.09606 -21.962855 8.372874)
(111.3642 -22.595768 6.7594368)
(111.92378 -23.157894 5.4340648)
(112.83725 -23.52806 4.117303)
(113.07153 -23.621488 2.7500246)
(112.43654 -23.578745 1.4739672)
(112.17998 -22.650866 0.038628995)
(109.96305 -19.982058 13.122144)
(109.12284 -20.463575 11.138421)
(108.75758 -20.989257 9.3397758)
(110.56084 -21.448379 8.0513101)
(111.87395 -22.002569 6.444172)
(111.86857 -22.312242 4.9888311)
(112.6078 -22.570634 3.7521363)
(112.93453 -22.729275 2.5373356)
(112.07801 -22.534986 1.3177566)
(110.97535 -21.491886 0.16071957)
(109.98959 -18.902543 12.52026)
(109.42526 -19.447531 10.266113)
(108.84758 -19.659308 8.5135457)
(109.3167 -20.019817 7.1559683)
(110.19192 -20.208018 5.7094358)
(109.83359 -20.3536 4.4433427)
(110.11063 -20.35379 3.4416484)
(110.43548 -20.451676 2.3056194)
(109.68526 -20.120148 1.2963573)
(108.71283 -20.725783 0.33404412)
(108.33335 -17.314348 11.294847)
(107.98965 -17.678246 9.3533651)
(107.07898 -17.711258 7.5643779)
(106.17419 -17.648262 6.1957526)
(106.76515 -17.653053 5.0138652)
(105.83545 -17.41416 3.7401777)
(105.69468 -17.15594 2.9712977)
(105.81112 -16.948808 2.2214299)
(105.56602 -16.692189 1.2607275)
(104.9669 -16.633101 0.46883921)
(105.33737 -15.762018 10.338261)
(104.39377 -15.563402 8.3005981)
(103.07531 -15.267342 6.610065)
(101.16094 -14.813359 5.2832249)
(101.04759 -14.409122 4.1977832)
(99.60521 -13.830702 3.186408)
(99.401984 -13.594988 2.4022424)
(99.204844 -13.190833 1.8575738)
(98.905833 -12.80225 1.2720203)
(98.430028 -12.360489 0.6320299)
(99.715304 -11.982957 8.4311576)
(98.465041 -11.578412 6.73433)
(96.810979 -11.161564 5.2091368)
(94.466635 -10.627034 4.2272183)
(93.754746 -10.130044 3.5309972)
(92.346895 -9.704772 2.7787258)
(91.484816 -9.3041077 2.1674903)
(91.125224 -9.0342259 1.6651131)
(90.862138 -8.8129512 1.1622142)
(90.816989 -8.6721172 0.61208841)
(94.010946 -10.439541 7.8387018)
(92.838198 -10.094548 6.3388478)
(90.996013 -9.5836321 5.0224766)
(88.422922 -8.9016904 3.9973592)
(87.534217 -8.5404745 3.2662242)
(85.888112 -8.005761 2.7244874)
(85.046676 -7.7002976 2.034105)
(84.45516 -7.4213163 1.5910779)
(84.172037 -7.2357643 1.1317559)
(84.19435 -7.1396183 0.47755964)
(88.71859 -9.1619434 7.4690826)
(87.456189 -8.9896905 5.9538169)
(85.153586 -8.2689889 4.9494763)
(83.165176 -7.8087593 3.95524)
(81.413396 -7.2183655 3.2792583)
(80.276086 -6.9672414 2.7195347)
(79.501766 -6.7508675 2.0626689)
(78.7084 -6.4823227 1.6218447)
(78.282524 -6.2797789 1.1380266)
(78.193502 -6.2092319 0.41326257)
(83.611716 -7.8953863 6.835613)
(81.913893 -7.6569376 5.6934961)
(80.068973 -7.2106241 4.8373588)
(77.620968 -6.4823447 4.0179816)
(76.376362 -6.2101415 3.1692478)
(75.361813 -6.0163165 2.6898548)
(74.420425 -5.7698952 2.1044462)
(73.233748 -5.3993616 1.6944868)
(72.8525 -5.2816968 1.1069396)
(72.630097 -5.2521265 0.38951445)
(78.880856 -7.1222647 6.4070654)
(76.840686 -6.77484 5.4881513)
(74.963156 -6.3041647 4.7123757)
(72.986214 -5.7720798 3.9643191)
(71.935741 -5.5757091 3.0915618)
(70.787247 -5.3057103 2.6412716)
(69.619829 -4.9981706 2.1246257)
(68.687678 -4.7745181 1.6957585)
(68.257081 -4.7134773 1.0486142)
(67.972526 -4.7131835 0.35754222)
(73.931624 -6.1104112 5.9128071)
(71.953233 -5.7646885 5.1706652)
(69.973834 -5.2513206 4.5789082)
(68.444859 -4.939839 3.7562797)
(67.338248 -4.7218173 2.9864364)
(66.286936 -4.4676776 2.6412918)
(65.09903 -4.1509924 2.1707351)
(64.273929 -4.0179346 1.6477551)
(63.694607 -3.9543281 0.98631747)
(63.362462 -3.9520733 0.32524758)
(69.335381 -5.2101053 5.5696183)
(67.140977 -4.7780784 4.8583483)
(65.516438 -4.4682486 4.3297668)
(64.21472 -4.241807 3.6057559)
(62.940777 -3.9430904 3.0058609)
(61.873684 -3.6691513 2.645589)
(61.061697 -3.4978897 2.190617)
(60.348032 -3.4186458 1.6074121)
(59.799847 -3.3809044 0.92878445)
(59.502859 -3.3784739 0.28814813)
(64.846924 -4.3895734 5.1209542)
(62.96278 -4.0806141 4.6438866)
(61.397877 -3.8233511 4.1753105)
(60.052212 -3.5870515 3.5357942)
(58.927284 -3.3254704 2.9198823)
(57.993182 -3.0847947 2.6163214)
(57.33482 -2.9604936 2.1798913)
(56.513491 -2.8233617 1.5982877)
(56.051347 -2.794011 0.93344397)
(55.851193 -2.7950425 0.31449555)
(60.980726 -3.694679 4.8143069)
(59.120413 -3.4137639 4.4443341)
(57.733207 -3.2590902 3.9523601)
(56.357725 -3.0132365 3.4128382)
(55.125273 -2.7163865 2.9140958)
(54.156095 -2.4535482 2.5930016)
(53.393101 -2.2725078 2.1648566)
(52.785982 -2.186113 1.5565673)
(52.426899 -2.1621018 0.9273055)
(52.270637 -2.1641881 0.32518493)
(57.412372 -2.997257 4.4375103)
(55.635766 -2.7435303 4.142556)
(54.279854 -2.6121468 3.6586852)
(52.978105 -2.4007792 3.2361141)
(51.595272 -2.0974987 2.8497912)
(50.522019 -1.8194332 2.5201967)
(49.900869 -1.69802 2.1152582)
(49.408758 -1.6287922 1.5033133)
(49.118847 -1.6064532 0.9035582)
(48.989016 -1.6119356 0.3328875)
(54.346763 -2.325548 4.1087519)
(52.716128 -2.135427 3.8244056)
(51.269023 -1.9743272 3.4376514)
(49.802172 -1.7290711 3.1063988)
(48.502389 -1.5012803 2.7639446)
(47.511438 -1.3014493 2.4355419)
(46.851288 -1.2112141 1.9593522)
(46.422139 -1.164622 1.4402729)
(46.183759 -1.1421983 0.88717035)
(46.057799 -1.1381176 0.34384515)
(51.591692 -1.654152 3.8558287)
(50.192392 -1.5673479 3.5672237)
(48.79643 -1.4577137 3.2370222)
(47.245915 -1.2169084 2.955526)
(45.831732 -0.97316494 2.649489)
(44.856002 -0.8266037 2.336033)
(44.123335 -0.75845729 1.8495313)
(43.726387 -0.72943529 1.3366809)
(43.521826 -0.72076942 0.82087171)
(43.43408 -0.72262143 0.30346739)
(49.252439 -1.1568567 3.4912458)
(48.050029 -1.1370687 3.2365426)
(46.546621 -0.9617947 3.0895477)
(44.933926 -0.7209455 2.8577028)
(43.525301 -0.49887757 2.5294493)
(42.407127 -0.3376027 2.2050626)
(41.667175 -0.29187956 1.7073411)
(41.264254 -0.27214923 1.2124723)
(41.078015 -0.27673373 0.7320263)
(41.038334 -0.28372129 0.24951714)
(47.155547 -0.7424615 3.1235983)
(46.204986 -0.77028401 3.0013005)
(44.664439 -0.53115274 2.9720788)
(43.109983 -0.31412505 2.7598835)
(41.554422 -0.061912681 2.5258403)
(40.471441 0.057548945 2.091446)
(39.731834 0.1000662 1.6186071)
(39.315785 0.11689977 1.1453053)
(39.144706 0.11311707 0.68568516)
(39.069384 0.10457097 0.22460143)
(45.619916 -0.46585479 2.8653068)
(44.536873 -0.4139173 2.8048945)
(42.971943 -0.12895215 2.8363135)
(41.292536 0.12103875 2.6560227)
(39.779876 0.33577896 2.440653)
(38.753839 0.42491286 1.9993695)
(38.014406 0.47077191 1.5350798)
(37.579066 0.48747241 1.0836269)
(37.350736 0.50192298 0.63393341)
(37.276314 0.49094842 0.20362696)
(44.03751 -0.1861537 2.5217815)
(42.805456 -0.035357903 2.5749229)
(41.182687 0.26482665 2.6098796)
(39.387587 0.55484353 2.5247459)
(38.072558 0.71662535 2.2825749)
(36.985843 0.805089 1.8952576)
(36.277403 0.83882344 1.4460725)
(35.84025 0.85679092 1.0256513)
(35.608445 0.86546948 0.6174755)
(35.531881 0.86034538 0.20861587)
(42.492743 0.055742787 2.1693425)
(41.05614 0.28698417 2.2612971)
(39.348197 0.62119333 2.3923754)
(37.562661 0.90403335 2.3665717)
(36.158932 1.0817745 2.1132383)
(34.94037 1.1883856 1.7852768)
(34.246084 1.2211076 1.3689289)
(33.819411 1.2405588 0.97453648)
(33.570886 1.2487713 0.59849145)
(33.522347 1.2432966 0.22284603)
(40.748891 0.34301435 1.851597)
(39.170779 0.61530949 1.9238048)
(37.402691 0.98512152 2.1784443)
(35.656981 1.2416646 2.1517074)
(33.993521 1.4639216 2.0137342)
(32.863718 1.5273793 1.6709644)
(32.180037 1.5520083 1.2811695)
(31.744308 1.572732 0.9137833)
(31.502554 1.5733735 0.56801018)
(31.437349 1.5678263 0.23104893)
(38.966813 0.58301059 1.5031195)
(37.235603 0.95474806 1.6275495)
(35.433285 1.3378015 1.9183239)
(33.546144 1.6127681 1.9358935)
(31.845329 1.8100442 1.8161879)
(30.772013 1.8350327 1.4424293)
(30.050474 1.8454889 1.0800592)
(29.582439 1.855414 0.74927796)
(29.295478 1.8575055 0.43806967)
(29.195246 1.8511955 0.13886111)
(36.950015 0.87790423 1.2333636)
(35.280594 1.2532565 1.4086348)
(33.445652 1.6365131 1.6863995)
(31.410104 1.9254106 1.8157465)
(29.767038 2.0806649 1.5858874)
(28.637931 2.1066604 1.2530367)
(27.889589 2.1222424 0.92759628)
(27.381792 2.129269 0.62491591)
(27.064216 2.1261432 0.34504262)
(26.920583 2.1137219 0.082944063)
(35.212082 1.107942 1.0001489)
(33.488169 1.4841085 1.1424828)
(31.430822 1.9153558 1.51571)
(29.441911 2.1694649 1.6342761)
(27.829517 2.2767012 1.4461588)
(26.698974 2.2934001 1.1113281)
(25.921831 2.2963844 0.81451965)
(25.396216 2.3011003 0.54468573)
(25.06343 2.3023291 0.29609807)
(24.887374 2.2963172 0.066936424)
(33.528249 1.3226819 0.80598105)
(31.675789 1.7337806 0.98855957)
(29.642994 2.1370987 1.3510396)
(27.540729 2.3829381 1.4815009)
(25.936596 2.4549161 1.2699677)
(24.796506 2.4537088 0.9659793)
(23.997596 2.4416919 0.70837362)
(23.463011 2.4472886 0.47788198)
(23.125021 2.4526441 0.25940354)
(22.928096 2.4471728 0.058048427)
(116.17728 16.510334 0.46727742)
(116.11385 16.771449 1.2008959)
(115.72578 17.203437 1.9012913)
(115.53321 17.610512 2.6988561)
(115.47967 18.06037 3.490059)
(115.42324 18.451716 4.3426988)
(115.4039 18.880062 5.1785155)
(115.31833 19.301219 6.0318387)
(115.01887 19.493898 7.0560843)
(114.80537 19.783276 8.129794)
(113.2456 13.939834 0.35624264)
(113.84924 14.047316 1.0595994)
(113.85409 14.168215 1.7990603)
(113.77459 14.314749 2.4685179)
(113.68882 14.622389 3.1203279)
(113.50498 15.017382 3.841537)
(113.4998 15.506338 4.6432601)
(113.79918 16.144257 5.5267941)
(113.98297 16.730539 6.464507)
(114.1296 17.335738 7.5454262)
(109.91405 13.621506 0.25854823)
(110.74578 13.687632 1.0447269)
(111.2031 13.730583 1.7538444)
(111.42981 13.686884 2.5050792)
(111.18065 13.662492 3.1953609)
(110.81525 13.712753 3.8577482)
(110.81784 13.892671 4.6107325)
(111.2393 14.224709 5.4288747)
(111.78152 14.618186 6.2335736)
(112.5005 15.113928 7.1316577)
(105.94872 13.219394 0.18229572)
(106.81454 13.302292 1.0060124)
(107.66761 13.382265 1.7244359)
(108.34251 13.351898 2.5213215)
(108.25983 13.272506 3.2613905)
(108.14034 13.248001 4.0037555)
(108.23574 13.305145 4.8154492)
(108.69191 13.507113 5.6425524)
(109.6001 13.84106 6.3020711)
(110.89861 14.236408 7.2267277)
(101.58273 12.6858 0.13081621)
(102.40107 12.780825 0.96998071)
(103.46437 12.905237 1.7229724)
(104.39745 12.904464 2.4759145)
(104.95466 12.873309 3.2706243)
(105.53175 12.847249 4.1210025)
(105.83391 12.85722 4.9527012)
(106.23382 13.000169 5.7863127)
(107.4766 13.310501 6.5436673)
(109.03371 13.631751 7.3492153)
(97.063433 12.061193 0.098565428)
(97.893597 12.161925 0.9530865)
(98.946054 12.299307 1.7035264)
(100.01483 12.360889 2.4898164)
(101.37081 12.431324 3.236859)
(102.80865 12.466624 4.2077456)
(103.28727 12.397426 5.1065896)
(103.56962 12.500995 5.986463)
(104.59116 12.735322 6.7840635)
(106.17722 12.978053 7.6080172)
(92.539439 11.414388 0.13673524)
(93.402118 11.518427 1.0233398)
(94.508518 11.664998 1.7891967)
(95.616849 11.722275 2.5424197)
(97.514841 11.886604 3.3579716)
(99.34501 11.93441 4.3506729)
(100.12071 11.881124 5.2757476)
(100.36537 11.898623 6.1952807)
(100.89602 12.021507 6.9569825)
(102.27396 12.153185 7.8014576)
(88.23205 10.772771 0.25216154)
(88.928983 10.870864 1.1327272)
(90.181007 11.041125 1.9186226)
(91.495285 11.112845 2.6799234)
(93.446258 11.300661 3.5563577)
(95.238778 11.371871 4.5095927)
(96.10124 11.313491 5.4817412)
(96.580938 11.301453 6.3902612)
(96.885194 11.333757 7.050267)
(98.083428 11.383237 7.8972096)
(84.458069 10.268441 0.37184378)
(84.94103 10.319981 1.2995287)
(86.062176 10.486177 2.1082462)
(87.439787 10.585908 2.8967822)
(89.132795 10.748832 3.842817)
(90.709736 10.813921 4.6905305)
(91.621783 10.754611 5.6565644)
(92.372273 10.735069 6.4711343)
(92.817193 10.631002 7.2185062)
(94.047119 10.61312 8.0320279)
(80.961715 9.8290981 0.42852022)
(81.46737 9.8472888 1.4204924)
(82.141019 9.9365353 2.2545475)
(83.297183 10.0125 3.1038693)
(84.48815 10.060597 3.991352)
(85.788013 10.056694 4.8144955)
(86.777361 9.9069636 5.6753577)
(87.822482 9.8315453 6.374098)
(88.581202 9.6454069 7.1439505)
(89.888735 9.5046452 7.9491358)
(77.480612 9.4741649 0.46016569)
(78.110402 9.4877353 1.4837706)
(78.498796 9.5118852 2.3273212)
(79.420584 9.5574749 3.2550213)
(80.217578 9.5592371 4.067557)
(81.186704 9.5146144 4.8748909)
(82.284246 9.3912531 5.6589464)
(83.72049 9.314931 6.3771488)
(84.776384 9.1481183 7.1785432)
(86.126731 8.913287 8.036661)
(74.023373 9.1696074 0.46176501)
(74.644856 9.1741329 1.4793343)
(75.136391 9.1795919 2.3154024)
(75.861788 9.1350233 3.2596924)
(76.453653 9.0464497 4.0931115)
(77.266472 8.9154163 4.8658023)
(78.356001 8.7355816 5.5863313)
(79.91349 8.5737768 6.2800185)
(81.096123 8.2882319 7.0347059)
(82.266936 7.8242689 7.6993697)
(70.705993 8.7825522 0.47707143)
(71.198269 8.7978152 1.4620121)
(71.769052 8.7901703 2.2848942)
(72.493553 8.699543 3.1781244)
(73.161106 8.5707512 4.0858872)
(73.970049 8.3829668 4.78166)
(75.032852 8.133814 5.474671)
(76.380509 7.9011706 6.2247034)
(77.547332 7.5664691 6.8854445)
(78.652036 7.0284774 7.4944274)
(67.66816 8.4006777 0.49641766)
(68.02616 8.4131934 1.4409275)
(68.523622 8.4187009 2.2643434)
(69.326213 8.3067815 3.1458024)
(70.097569 8.1406029 4.0459113)
(70.949846 7.9171894 4.7077491)
(72.129871 7.6495459 5.4484697)
(73.17499 7.3237187 6.2158785)
(74.041406 6.925803 6.6374611)
(74.91021 6.2717089 7.1876306)
(64.933795 8.029897 0.48319022)
(65.128108 7.977799 1.4455202)
(65.578867 7.9578562 2.2885984)
(66.346813 7.8991432 3.1441616)
(67.206833 7.6814904 4.0026783)
(67.987647 7.4083373 4.6167468)
(69.175134 7.1371931 5.3393039)
(70.03247 6.6944474 6.081145)
(70.547659 6.1624051 6.3605977)
(71.017696 5.3538262 6.7398258)
(62.503353 7.8608289 0.44805983)
(62.339339 7.3788947 1.1792856)
(62.69905 7.1481505 2.4138451)
(63.410738 7.3704501 3.1085625)
(64.345001 7.1217243 3.8986989)
(65.033288 6.8348171 4.5563798)
(66.096761 6.5441845 5.2125681)
(66.732445 6.0161639 5.7183318)
(67.173776 5.4111425 5.9123392)
(67.389293 4.5296095 6.2436416)
(60.48835 7.8494597 0.41069684)
(60.321486 7.6400053 1.1602851)
(60.592613 7.1703803 2.4672875)
(60.74095 6.8244756 3.0948141)
(61.628381 6.5892368 3.8836516)
(62.267573 6.2990277 4.5361933)
(63.057895 5.9222964 5.1068807)
(63.56532 5.3657385 5.4577181)
(63.823384 4.6698511 5.5287729)
(63.695518 3.8105195 5.4999849)
(58.718395 7.7232099 0.41150558)
(58.540422 7.551814 1.2129465)
(58.43991 6.9057084 2.3222615)
(58.472458 6.3123899 3.1304744)
(59.0552 6.0215576 3.8166735)
(59.58057 5.6925723 4.3903895)
(60.103443 5.2687415 4.7944867)
(60.491961 4.6518027 5.1056383)
(60.468002 3.8851446 5.0618885)
(60.135892 3.0556381 4.8307899)
(57.318811 7.5937298 0.39486796)
(57.078829 7.395449 1.2238829)
(56.831738 6.84628 2.1150025)
(56.586909 6.0152775 3.1076293)
(56.835525 5.4916875 3.8404089)
(57.315661 5.094705 4.3517102)
(57.542382 4.6341304 4.5483954)
(57.49006 3.9571259 4.6316622)
(57.116645 3.1227803 4.4664659)
(56.454369 2.3221275 4.0673051)
(56.278249 7.5353895 0.43008799)
(55.969037 7.2806604 1.3029991)
(55.575509 6.8109283 2.1559267)
(55.025073 5.9457378 2.9286756)
(54.921136 5.0650506 3.7435876)
(55.103711 4.4612249 4.2591163)
(55.184268 3.9190864 4.3653603)
(54.900897 3.2560937 4.3129445)
(54.200791 2.4238748 3.9260327)
(53.026129 1.637925 3.343943)
(55.569075 7.5266224 0.43205436)
(55.248007 7.2386395 1.3342442)
(54.587443 6.6422979 2.2026524)
(53.990316 5.8969301 2.8097562)
(53.238567 4.6317239 3.4766765)
(52.899339 3.6358895 4.001892)
(53.05071 3.1918509 4.0678809)
(52.518801 2.5650767 3.8784449)
(51.571723 1.7745309 3.3147299)
(49.904097 1.1170788 2.522626)
(55.110366 7.576616 0.44413223)
(54.76908 7.2575907 1.3609803)
(54.002073 6.5569424 2.2509979)
(53.099508 5.7352453 2.8654599)
(52.202629 4.6097435 3.230689)
(50.8722 3.0697214 3.6000477)
(50.603135 2.2136042 3.7603059)
(50.276386 1.9530674 3.4440522)
(49.250325 1.2492021 2.8005672)
(47.376666 0.64479484 1.9964103)
(54.862369 7.6945209 0.45748857)
(54.375005 7.2986334 1.3936013)
(53.622808 6.5577272 2.2472606)
(52.605734 5.6251776 2.9815918)
(51.221071 4.4780573 3.2563436)
(49.323699 3.0605789 3.211168)
(48.761019 1.6212925 3.7082395)
(48.193953 1.4080192 2.9225194)
(47.123674 0.78082504 2.332682)
(45.059457 0.36772353 1.4288004)
(54.560274 7.7868168 0.49799739)
(53.955837 7.3279722 1.4491015)
(53.132541 6.5378628 2.2365733)
(52.009162 5.5447445 2.8679788)
(50.109765 4.2361529 2.9510428)
(47.935489 2.8894654 2.8374773)
(47.239465 1.4271857 3.4262794)
(46.412633 0.90251814 2.5334408)
(45.069425 0.45006322 1.7286419)
(42.968549 0.092910993 0.95301537)
(53.287003 6.9360372 0.44915699)
(52.750101 6.5707664 1.2391285)
(52.074892 5.9420607 1.9740992)
(50.957667 5.0441214 2.5516179)
(48.907586 3.8193025 2.5740051)
(46.445335 2.4949788 2.3148201)
(45.308716 1.0356248 2.7342574)
(44.451004 0.51329558 2.0381142)
(43.176958 0.089820933 1.2954719)
(41.021432 -0.24576362 0.59803036)
(51.161706 5.4624441 0.34895907)
(50.610968 5.1414841 0.89762291)
(49.925129 4.5752845 1.4181005)
(48.738515 3.8008608 1.8095651)
(46.995157 2.9861021 1.7792996)
(44.325902 1.9094738 1.4304179)
(43.023353 0.51312006 1.9015228)
(42.220021 0.13487829 1.3577052)
(41.033363 -0.14666879 0.76885619)
(38.792466 -0.38284474 0.075800137)
(48.149757 3.8406444 0.23367248)
(47.547254 3.5659366 0.518892)
(46.882276 3.1132025 0.87380876)
(45.712207 2.4647887 0.9964597)
(44.116966 1.8962226 0.84465246)
(41.845934 1.3191843 0.80712193)
(40.748671 0.27986737 1.3732693)
(39.994761 -0.10767731 0.9136872)
(38.689206 -0.35427735 0.29043654)
(36.664686 -0.53626846 -0.26899148)
(44.605399 2.213611 0.059579861)
(43.965433 1.9924817 0.14926613)
(43.167631 1.6042579 0.2437096)
(42.036639 1.1562297 0.18144604)
(40.370669 0.79907738 -0.14196178)
(38.829463 0.49850622 0.092637288)
(38.203953 -0.16928691 0.73230918)
(37.588019 -0.3135306 0.3479838)
(36.243832 -0.45935964 -0.12696465)
(34.4507 -0.57462743 -0.60870701)
(40.592094 0.79470156 -0.056210782)
(40.046174 0.69384171 -0.17121788)
(39.311723 0.50681215 -0.36062421)
(38.257533 0.21702283 -0.51762237)
(36.819333 0.042393625 -0.72647682)
(36.301386 -0.060948851 -0.038818894)
(35.994142 -0.3131521 0.3624686)
(35.136832 -0.42622107 -0.15333817)
(33.884112 -0.52894478 -0.5076945)
(32.37783 -0.57360533 -0.89370634)
(36.622996 -0.31867528 -0.13684168)
(36.241006 -0.33352111 -0.41964052)
(35.44015 -0.39170225 -0.81885115)
(34.370526 -0.48174794 -1.1804217)
(33.986813 -0.46098915 -0.77977596)
(34.159617 -0.39593661 -0.1682095)
(33.810932 -0.42241429 -0.24872329)
(33.056086 -0.54617078 -0.53051084)
(31.812646 -0.56458235 -0.83725492)
(30.48882 -0.52454409 -1.1601152)
(114.56046 20.107399 9.7484128)
(114.26793 20.135222 11.526631)
(113.71407 19.51698 13.717377)
(112.92892 18.344696 15.805425)
(111.69835 16.443387 17.895733)
(110.35455 13.917651 19.497557)
(108.43368 11.694141 20.57277)
(106.75077 9.3974824 21.119595)
(106.13992 7.4551135 21.605105)
(106.40854 5.3315275 21.930702)
(106.06777 3.2264372 21.810069)
(105.60522 0.53604848 21.530181)
(104.72572 -1.8078748 21.193569)
(106.92363 -4.42374 21.061565)
(108.07794 -7.5752495 20.193595)
(108.58527 -10.656496 18.86542)
(108.02614 -13.361701 16.763776)
(107.42307 -15.554687 14.626323)
(114.48077 18.037929 9.1298019)
(114.9007 18.602884 10.87912)
(114.98191 18.486381 13.288554)
(114.70983 17.993286 15.699976)
(113.73964 16.356544 18.136155)
(112.40569 14.150072 19.992977)
(110.01126 11.583011 21.217577)
(108.21722 9.4116365 22.10537)
(106.78626 7.4032531 22.393676)
(107.11173 5.2826752 22.658061)
(107.35554 3.1093601 22.807883)
(106.87509 0.32797775 22.692469)
(106.8092 -2.3576518 22.508212)
(108.9102 -5.3689909 22.338876)
(109.64982 -8.7626432 21.526036)
(109.58478 -11.803721 20.007027)
(109.0132 -14.664534 17.744524)
(108.33534 -16.935743 15.498178)
(113.64303 15.805377 8.445445)
(114.81345 16.424391 10.275837)
(115.57444 16.964036 12.583783)
(115.39579 16.763226 15.011699)
(114.66967 15.750185 17.734753)
(113.49686 14.017978 20.062112)
(111.1113 11.47966 21.4048)
(108.77696 9.2436232 22.239841)
(107.1041 7.2682549 22.82992)
(107.69233 5.0728903 23.275529)
(108.74349 2.7670411 23.635696)
(108.28391 -0.15142255 23.652536)
(108.8084 -3.0827723 23.569483)
(109.94035 -6.3153017 23.390585)
(109.68009 -9.6313589 22.197632)
(109.52546 -12.764615 20.785405)
(109.40237 -15.577233 18.462654)
(108.66301 -17.843019 15.932133)
(112.45393 14.769975 8.4232334)
(113.77831 15.272003 10.049166)
(114.49078 15.63974 12.230645)
(114.63765 15.573784 14.551759)
(114.16211 14.667809 17.100225)
(113.18898 13.047361 19.397057)
(111.50565 11.16773 21.042502)
(109.31325 8.9012193 22.111765)
(107.84077 6.8895588 22.68057)
(108.80044 4.916807 23.407233)
(109.88198 2.2362324 23.855962)
(109.46198 -0.70788724 23.987112)
(109.9796 -3.7085299 24.03941)
(109.83658 -6.8159829 23.491425)
(109.09819 -10.048391 22.538599)
(109.15536 -13.176647 20.990583)
(109.78903 -16.021086 18.592239)
(109.1151 -18.122716 16.033633)
(110.65775 14.017528 8.6269029)
(111.74158 14.289267 10.178461)
(112.40019 14.478285 12.059751)
(112.95095 14.273304 14.159371)
(113.26548 13.613619 16.375954)
(112.72981 12.096227 18.708259)
(111.09396 10.388766 20.332449)
(109.65161 8.288997 21.729924)
(108.87542 6.3863741 22.585789)
(109.74768 4.3676286 23.374461)
(110.26715 1.7970698 23.707003)
(109.85513 -1.1649002 23.947463)
(109.79752 -4.1829657 23.67728)
(109.47739 -7.4511776 23.212249)
(108.45289 -10.468553 22.046259)
(108.7611 -13.285452 20.621288)
(110.17988 -16.038596 18.622977)
(109.84459 -18.217807 15.842584)
(107.73571 13.284955 8.7824025)
(108.74145 13.315615 10.222441)
(109.66134 13.375472 11.836728)
(110.87238 13.125859 13.803771)
(111.99744 12.441631 15.910274)
(111.7347 11.084544 17.998137)
(110.07872 9.2920733 19.452889)
(109.12876 7.525458 20.783523)
(108.78099 5.5564792 21.791193)
(109.38868 3.6907398 22.701544)
(109.47827 1.151211 23.07316)
(108.78349 -1.7234858 23.195797)
(108.4242 -4.6092098 22.913726)
(108.07028 -7.5227181 22.150444)
(107.42744 -10.360575 20.994677)
(108.07015 -13.060086 19.500231)
(109.84816 -15.686811 17.725781)
(110.159 -17.759727 15.143776)
(103.76588 12.358862 8.8296451)
(105.19025 12.281919 10.159703)