/*--------------------------------*- C++ -*----------------------------------*\
| =========                 |                                                 |
| \\      /  F ield         | OpenFOAM: The Open Source CFD Toolbox           |
|  \\    /   O peration     | Version:  2.4.0                                 |
|   \\  /    A nd           | Web:      www.OpenFOAM.org                      |
|    \\/     M anipulation  |                                                 |
\*---------------------------------------------------------------------------*/
FoamFile
{
    version     2.0;
    format      ascii;
    class       volScalarField;
    location    "0.00574951018";
    object      rho;
}
// * * * * * * * * * * * * * * * * * * * * * * * * * * * * * * * * * * * * * //

dimensions      [1 -3 0 0 0 0 0];

internalField   nonuniform List<scalar> 
240308
(
0.36359004
0.43614838
0.47510962
0.39131366
0.48714048
0.59899069
0.57861224
0.48281728
0.46822416
0.54572614
0.52491895
0.4490482
0.087378812
0.026250454
0.18382993
0.026817783
0.022360456
0.044685166
0.13500755
0.42578869
0.35507808
0.46597543
0.38546121
0.59160651
0.48231333
0.56795556
0.53000287
0.45677421
0.47320659
0.50653593
0.43256573
0.02726396
0.090584401
0.19005651
0.02744487
0.045567537
0.022652132
0.13724248
0.21710401
0.22168827
0.13619105
0.084156307
0.013634599
0.013501011
0.068431405
0.2832406
0.27154356
0.39130835
0.40010179
0.38119871
0.38350968
0.13991051
0.087198041
0.013931297
0.013581096
0.06970253
0.29005408
0.27762372
0.39522813
0.40944736
0.39543205
0.39924172
0.7018886
0.69511449
0.70157816
0.70115775
0.69521353
0.71347728
0.70292548
0.71179703
0.71091967
0.70205818
0.68934382
0.69037007
0.68269913
0.68276938
0.69082529
0.69851541
0.69670548
0.68909531
0.69084225
0.6982156
0.70608886
0.70173858
0.69721825
0.69838642
0.70253158
0.71026008
0.70784324
0.70044312
0.70305711
0.70956725
0.68383993
0.67150752
0.67717885
0.69014022
0.68250366
0.69194313
0.68313423
0.6847005
0.69396459
0.69059093
0.69833043
0.68671445
0.69279463
0.70373773
0.69589618
0.70490264
0.7015467
0.69684122
0.69758915
0.70262337
0.71020227
0.70840937
0.70459746
0.70308281
0.70649087
0.68880809
0.6813503
0.68139432
0.6888774
0.68735087
0.69553613
0.68711995
0.6882076
0.69808944
0.69500857
0.70142015
0.69168842
0.69678202
0.70609032
0.69886648
0.70649173
0.70557312
0.70292101
0.7002989
0.70471585
0.69291635
0.687025
0.69110277
0.68944339
0.68457601
0.70017267
0.69334721
0.69236662
0.69815758
0.69861748
0.70458275
0.69816084
0.69914885
0.70268905
0.70186855
0.70600314
0.70591737
0.70071925
0.70222013
0.70793911
0.70961858
0.70878332
0.70628661
0.70626653
0.70921321
0.71404141
0.70926476
0.71108677
0.71326655
0.70992296
0.69561239
0.69309813
0.68746531
0.68587994
0.69165589
0.7011898
0.69773424
0.69460459
0.69272798
0.69700457
0.70300544
0.69989944
0.69684011
0.69738332
0.70142812
0.70432517
0.70248989
0.70045661
0.69989929
0.70199203
0.70544461
0.70434526
0.70105911
0.70304815
0.70682729
0.70814675
0.70559523
0.70744685
0.70787925
0.70465251
0.69221245
0.68811652
0.68224077
0.68077024
0.68651231
0.69555899
0.69131447
0.68806107
0.68794114
0.69108937
0.69512278
0.69081269
0.68950128
0.69094704
0.69345314
0.69284375
0.68938051
0.68609679
0.69049718
0.69505999
0.68702386
0.67972528
0.6770647
0.68171369
0.68629555
0.68064438
0.67505136
0.6720244
0.67988417
0.68257931
0.1182892
0.11950941
0.13265121
0.15237498
0.12744105
0.28113821
0.29757038
0.40711111
0.31326061
0.24129719
0.23925306
0.23026852
0.23332352
0.26638178
0.26111017
0.21380642
0.20582581
0.21875058
0.23624538
0.21303941
0.80396974
0.82200574
0.82248102
0.81075245
0.7956447
0.83800537
0.86121276
0.8334719
0.84076333
0.85221139
0.69843305
0.68457831
0.69116379
0.72802393
0.71812943
0.77309824
0.80542278
0.78568307
0.76026505
0.76393101
0.61887312
0.66425829
0.63486787
0.58005076
0.6175341
0.12008517
0.13510971
0.12114341
0.12847824
0.15471417
0.28565506
0.40760922
0.30190262
0.24991713
0.31910366
0.24300401
0.23630891
0.23424054
0.26533571
0.26948126
0.21623366
0.22158946
0.20824866
0.2150945
0.23891727
0.69770835
0.69779303
0.69052829
0.69094261
0.69716333
0.70889142
0.70829895
0.69856817
0.69632484
0.70541739
0.6845105
0.68482898
0.67816868
0.67813021
0.68440346
0.69382627
0.69349784
0.68644195
0.68466017
0.69256823
0.70118503
0.69757294
0.69301287
0.69273033
0.69760569
0.70703945
0.70374866
0.69916284
0.69885398
0.70436192
0.68081482
0.67365374
0.6691334
0.67967263
0.68602628
0.68894824
0.6817775
0.68077542
0.68776533
0.69143258
0.69451069
0.68895578
0.68379062
0.69304748
0.69951441
0.70130961
0.70049876
0.69454072
0.69393424
0.69948315
0.70600335
0.7015022
0.70076437
0.70342877
0.70386328
0.68538617
0.67791141
0.67951948
0.68388946
0.68457818
0.6921391
0.68497194
0.68380159
0.69232922
0.69511146
0.6990953
0.69376864
0.68856102
0.6962105
0.70325117
0.70410317
0.7030098
0.69704127
0.69802436
0.70231004
0.69098067
0.68912374
0.68627306
0.68147244
0.68541368
0.69723043
0.6893144
0.69258924
0.69529634
0.69284795
0.70226984
0.69581399
0.69588973
0.69903848
0.69878332
0.70444551
0.7036691
0.69977859
0.69936316
0.70313597
0.70750733
0.70517568
0.70383402
0.70523048
0.70655023
0.71227114
0.70710308
0.71188847
0.71091712
0.70717095
0.69519348
0.69047037
0.68482066
0.68700586
0.69194379
0.6998231
0.69669076
0.6923713
0.69349797
0.69663484
0.70180161
0.69962947
0.69598478
0.69625043
0.69877423
0.70364994
0.70047906
0.69870387
0.69944815
0.70120301
0.70493374
0.70548131
0.70173662
0.70058012
0.70348271
0.70768958
0.70387579
0.70697366
0.70590072
0.70446342
0.69335766
0.68725276
0.68223128
0.68354898
0.68892315
0.69719231
0.69170447
0.68869449
0.68885917
0.69217699
0.69580694
0.69326732
0.69187754
0.69059879
0.69146582
0.69332153
0.69511995
0.69108462
0.68658295
0.68990794
0.68793139
0.68647012
0.68312592
0.67847198
0.68050912
0.68144131
0.68270354
0.68069966
0.67368555
0.67584052
0.8203521
0.83405863
0.83784355
0.80719286
0.81406267
0.85334637
0.85695664
0.84845988
0.84972257
0.87280626
0.71626268
0.70423386
0.70334249
0.73816745
0.74442865
0.77428873
0.79338115
0.80833113
0.77627376
0.77215236
0.63480258
0.65150158
0.6817169
0.62837554
0.58909171
4.3458427
4.127364
4.1632723
4.1998842
4.1640116
4.4373836
4.2577884
4.228766
4.2030397
4.2379085
4.4841443
4.3048913
4.2816137
4.2500206
4.272373
4.5298632
4.2984786
4.3570804
4.3371332
4.2881292
4.5638105
4.3699338
4.375969
4.3530018
4.3341288
4.5966088
4.3576605
4.3946299
4.3920062
4.3648046
4.6147866
4.3960662
4.4117274
4.3996399
4.3721815
4.6177786
4.3894831
4.4132357
4.3858496
4.370049
4.5878313
4.336565
4.3675345
4.3775351
4.3315273
4.5181482
4.3217942
4.3333506
4.2686852
4.2685424
4.4423932
4.1933122
4.2353742
4.2549531
4.2086424
4.3571818
4.1580709
4.1884228
4.130386
4.0997366
4.2387047
4.0046701
4.0618741
4.0819497
4.0249105
4.1427393
3.9575178
3.9850366
3.9431855
3.9112333
4.0236279
3.8189898
3.8601635
3.8800065
3.8366572
3.9035303
3.7843643
3.7291555
3.7001995
3.7541689
3.7549538
3.653008
3.6093986
3.5617879
3.6080363
3.6151455
3.5091523
3.4891188
3.4936236
3.5222793
4.3609644
4.1350737
4.169956
4.2090359
4.1699584
4.4276535
4.206977
4.2314941
4.2491999
4.2338281
4.4576432
4.236371
4.2576811
4.2613088
4.2347533
4.472182
4.2147175
4.2562721
4.2942368
4.2556377
4.4780052
4.2132102
4.2746357
4.3102934
4.252417
4.5104522
4.2998074
4.333316
4.2818517
4.2291606
4.5304413
4.3071413
4.3551858
4.2913989
4.2385344
4.5212795
4.2908617
4.3524475
4.298683
4.2250098
4.4779409
4.2263152
4.3174294
4.2779909
4.1814598
4.4221546
4.1661212
4.2530005
4.2155519
4.1273306
4.3525318
4.0674923
4.1046811
4.1959673
4.1572434
4.2704282
4.0278462
4.1208987
4.1000082
4.0021132
4.1888848
3.9306673
3.9415703
4.0367449
4.0196577
4.0887376
3.8732549
3.9364468
3.9243764
3.866064
3.9832051
3.8375846
3.8386205
3.7691293
3.7735135
3.8698177
3.6866054
3.7295727
3.7416342
3.6972363
3.7409337
3.5923839
3.5598552
3.6044356
3.6390525
3.6221979
3.5078073
3.483577
3.4996921
3.5279683
4.3583009
4.1756292
4.1262527
4.146173
4.1994914
4.407621
4.1932729
4.1855281
4.2120755
4.2205033
4.3941761
4.1818318
4.2199255
4.1955306
4.1549712
4.3701927
4.161737
4.2158463
4.1569306
4.1049059
4.3584454
4.1396565
4.1867841
4.1450521
4.0824706
4.3613627
4.1563394
4.2029254
4.1293951
4.0690877
4.3709834
4.1437175
4.2264581
4.1524965
4.0634913
4.3700627
4.148961
4.2143793
4.1386847
4.0691449
4.3284938
4.0924467
4.1385434
4.1120016
4.0572631
4.2719975
4.0215654
4.1173593
4.0787647
3.9921947
4.2157373
3.9313957
3.9577844
4.0580214
4.0254629
4.134289
3.8570995
3.8871465
3.9851335
3.9602953
4.0583793
3.9193548
3.8887561
3.7952308
3.823306
4.0014395
3.7654217
3.7802143
3.8530328
3.8312441
3.9162801
3.7775846
3.7705088
3.712618
3.717623
3.8311499
3.6370272
3.6415707
3.6936803
3.688295
3.7267562
3.5858133
3.5648589
3.5912929
3.6120785
3.6338845
3.5108838
3.534744
3.512527
3.4866868
4.3006052
4.0806871
4.1410552
4.1401416
4.0764154
4.3398856
4.1436332
4.1274539
4.1602243
4.1875445
4.3129004
4.084159
4.1460688
4.1241106
4.072365
4.2646673
4.0291287
4.0988128
4.0454139
3.9933259
4.2136453
4.0097955
4.0694014
4.0018805
3.9323249
4.2005399
3.9627218
4.0432974
3.9971242
3.9132847
4.1890795
3.979799
4.0467171
3.9535477
3.880829
4.2010513
3.9910158
4.0421915
3.9643093
3.9173138
4.2033611
3.9713298
4.0481999
3.9889007
3.914958
4.1427695
3.8703243
3.9923857
3.966036
3.8560802
4.0816615
3.9332206
3.8887546
3.8164574
3.8395729
4.0184071
3.7690729
3.7501505
3.864195
3.852221
3.9486732
3.7109789
3.7171727
3.7741114
3.7685247
3.9031423
3.6564096
3.692827
3.7611712
3.7238593
3.8522195
3.6610954
3.6626003
3.6950555
3.6920375
3.7942285
3.6022037
3.6113132
3.6501295
3.646039
3.7157423
3.5641708
3.5611018
3.5799777
3.5903281
3.6398217
3.5300004
3.5133758
3.5131741
3.5231217
4.2486109
4.0260754
4.0780682
4.0830439
4.023078
4.2662686
4.0432688
4.1080776
4.0775553
4.014868
4.2194017
3.9860614
4.0608664
4.0188368
3.9578891
4.1365062
3.8952754
3.9849309
3.9464442
3.8656278
4.0689021
3.8356948
3.9106167
3.8602213
3.7836183
4.0307241
3.8161195
3.8893636
3.8235908
3.7416444
4.0184131
3.7835558
3.8666332
3.8101108
3.7241416
4.0498732
3.8464552
3.8896584
3.8044824
3.7548969
4.0659712
3.8346072
3.8987137
3.8404305
3.7796366
4.0101313
3.7571928
3.8340257
3.8267961
3.7401434
3.953554
3.8028414
3.7550582
3.6845013
3.7248335
3.9130535
3.648027
3.6767842
3.7499044
3.7194479
3.8517834
3.5806172
3.625427
3.7044343
3.6706798
3.7985915
3.5689443
3.6033171
3.645778
3.6220538
3.7901627
3.5726031
3.6004445
3.6431138
3.6021901
3.7516993
3.5728318
3.5784426
3.5993359
3.5938602
3.699055
3.5624356
3.5561509
3.5533487
3.5713889
3.6383977
3.5221775
3.5203665
3.5207981
3.5153875
4.1657073
3.9523527
3.9754007
4.017996
3.996097
4.1522415
3.9374163
4.0070927
3.9567253
3.8935883
4.0909389
3.8571439
3.9412573
3.903957
3.8230882
4.0041097
3.8301326
3.7241124
3.7427275
3.8600718
3.9148975
3.7148743
3.6260771
3.679867
3.7691675
3.8612137
3.6565829
3.5592798
3.6254696
3.7198034
3.8460024
3.6327982
3.7006906
3.6139514
3.5515173
3.8624657
3.6404294
3.7286689
3.6413771
3.5522499
3.8962213
3.6739125
3.7584202
3.672161
3.6060757
3.8845601
3.6482665
3.7294465
3.6994451
3.622435
3.8367694
3.5759725
3.6079966
3.6803583
3.644588
3.7829472
3.5303684
3.5661007
3.6326458
3.6017619
3.7490579
3.5156624
3.5337987
3.573387
3.5695142
3.719278
3.4991692
3.5137151
3.5524876
3.5415
3.7128372
3.5133852
3.5472565
3.5610919
3.5225954
3.7193554
3.5437679
3.551282
3.5643236
3.5560979
3.6898631
3.5377872
3.5468701
3.5581109
3.5429308
3.6409172
3.5317217
3.5284388
3.50532
3.5058568
4.0778223
3.8873907
3.8338773
3.8965563
3.9356953
4.0318142
3.8029041
3.884053
3.8456239
3.7787281
3.9572019
3.7614459
3.6855718
3.7250513
3.803426
3.8736895
3.693849
3.6110991
3.6333878
3.7176711
3.7947446
3.6040866
3.5553712
3.5723041
3.614502
3.736825
3.5301298
3.4770572
3.5166161
3.5570447
3.7169085
3.5244395
3.5345787
3.4936077
3.4683891
3.7520009
3.5557611
3.5698517
3.5310668
3.5013847
3.772819
3.5625183
3.5993662
3.5564843
3.5138065
3.7624727
3.5433462
3.5993087
3.5488666
3.4999361
3.7360608
3.4873496
3.5076216
3.5668241
3.5476083
3.6865978
3.4470485
3.4736094
3.5202682
3.4980524
3.6558712
3.412598
3.4540442
3.5102562
3.4688143
3.6443555
3.4168416
3.4552015
3.4912595
3.456155
3.6530465
3.44996
3.4812901
3.4961957
3.4706074
3.6675472
3.4759796
3.4963721
3.5291953
3.4897204
3.6613743
3.5087966
3.5298955
3.5272329
3.4971717
3.6311864
3.495336
3.4903892
3.5145492
3.5219328
3.9484103
3.7499292
3.8276457
3.7526226
3.6969692
3.8953133
3.674531
3.7671709
3.6939909
3.6333198
3.8377762
3.6357465
3.5790923
3.62088
3.6715041
3.7778802
3.6009983
3.5440903
3.5587105
3.6065834
3.7400273
3.5392944
3.5019203
3.5169884
3.5505746
3.7009661
3.5073489
3.4876283
3.4844675
3.4927822
3.7024758
3.5202758
3.48156
3.4829211
3.4942333
3.7383611
3.558206
3.5104122
3.5081851
3.5432594
3.7502931
3.5635233
3.522635
3.5466592
3.5615409
3.7335115
3.5588448
3.5658011
3.5206542
3.4954388
3.6983283
3.5200651
3.5022871
3.5008387
3.5223998
3.6693941
3.4972305
3.4548595
3.4662979
3.5093701
3.6193076
3.4529199
3.4056132
3.4128552
3.459385
3.5920342
3.4064867
3.4185789
3.415088
3.4104323
3.5990357
3.409002
3.4270363
3.431635
3.4263018
3.6092496
3.4201863
3.4547402
3.4651742
3.4352005
3.6295598
3.4607556
3.491739
3.4973998
3.4588432
3.613095
3.4687196
3.48007
3.4877091
3.4862032
3.8375276
3.6410313
3.5823555
3.6334485
3.6896748
3.7714432
3.5935827
3.5407072
3.5631867
3.6227248
3.7401665
3.5406049
3.4966841
3.5364709
3.5716634
3.72824
3.5126903
3.5396592
3.5170959
3.4885543
3.7067024
3.5064637
3.5067109
3.4978399
3.4978275
3.6875688
3.4850841
3.4989218
3.4846944
3.4672152
3.7146189
3.5451824
3.5083076
3.4888321
3.5232961
3.7696596
3.5887718
3.551289
3.5504722
3.5759214
3.7982039
3.6001345
3.5835353
3.5953023
3.6060808
3.7808386
3.6031148
3.5922908
3.5742964
3.5704484
3.7285453
3.5545502
3.5057581
3.5221154
3.5698207
3.6815312
3.4917926
3.4659615
3.5002029
3.5162966
3.6317607
3.4645517
3.4392261
3.4478048
3.4644416
3.5971124
3.4055771
3.3965309
3.4095597
3.4368183
3.5627935
3.4126061
3.4022067
3.396301
3.4011711
3.5669474
3.4055733
3.4138561
3.4081745
3.4034495
3.5857754
3.43216
3.4632869
3.4547375
3.4188452
3.5997635
3.4593466
3.4675756
3.472482
3.4629092
3.731957
3.5629632
3.5062716
3.5134161
3.5696793
3.691214
3.5024924
3.4222773
3.4525848
3.5343136
3.6504502
3.4477393
3.4950797
3.4423883
3.4038139
3.6621633
3.4625315
3.4850287
3.4451789
3.4295847
3.6708321
3.4681319
3.5095643
3.4770525
3.4443553
3.6573418
3.4740246
3.4694661
3.435902
3.4387337
3.7152281
3.546186
3.5304681
3.4737147
3.4890896
3.7591697
3.5700402
3.584783
3.5542907
3.5397438
3.787526
3.5900044
3.6100792
3.5746136
3.5499942
3.7447246
3.5286758
3.5925204
3.5872891
3.5139849
3.706013
3.4922864
3.550854
3.5373315
3.4740755
3.6462884
3.5148549
3.4768611
3.3953721
3.4431728
3.612056
3.4657477
3.4555951
3.4075749
3.4117011
3.5505048
3.4085294
3.4050528
3.3745252
3.373251
3.5328835
3.4055738
3.3708435
3.349525
3.3647729
3.5196548
3.3953137
3.3615105
3.3308495
3.3544829
3.5268275
3.3277974
3.3924604
3.4204811
3.357719
3.5379024
3.3798882
3.4251167
3.4377531
3.3863787
3.6803173
3.4418052
3.5490555
3.5391539
3.4353796
3.7946174
3.6563252
3.570557
3.556353
3.6405854
3.9024316
3.7872663
3.6808832
3.6555248
3.7558772
4.0202074
3.8800124
3.7885908
3.792147
3.8809728
4.1121541
3.977788
3.8923653
3.902288
3.9797546
4.1668551
4.0169818
4.0040221
3.9609715
3.979853
4.2151015
4.0091723
4.0260011
4.0712655
4.0535981
4.2500199
4.0373918
4.0348508
4.1019934
4.0980309
4.2487211
4.0337355
4.0720761
4.1140988
4.0769534
4.2481328
4.0287732
4.0860386
4.1189058
4.0642041
3.5118742
3.2974799
3.4136944
3.3795543
3.2738397
3.6394416
3.414286
3.5436439
3.5088137
3.3905689
3.7418382
3.6175465
3.4967542
3.5263286
3.6483667
3.8783986
3.6602428
3.7600196
3.7570006
3.6528007
3.9746753
3.7699648
3.8649506
3.8460843
3.7487227
4.046879
3.9516447
3.8946375
3.8090907
3.8640337
4.0992199
3.9928106
3.9472403
3.866202
3.9052507
4.1161378
4.0161153
3.9482103
3.88628
3.9500404
4.1138152
3.8810686
3.9607706
4.0298117
3.9425384
4.0941116
3.8441501
3.9281005
4.0084614
3.9144747
3.322292
3.0988751
3.2314243
3.2022242
3.074138
3.436327
3.2247134
3.3500103
3.3223143
3.200236
3.5615374
3.4790267
3.3663724
3.3558642
3.4598271
3.6972904
3.5862858
3.4540415
3.4767649
3.6174092
3.781756
3.6439742
3.5492177
3.5987381
3.7004481
3.8282536
3.7624536
3.7148828
3.597506
3.6408574
3.8905519
3.8133379
3.7473052
3.6413016
3.7077823
3.9035777
3.8353032
3.7615426
3.6587471
3.7194184
3.9037738
3.8299265
3.7654598
3.6629676
3.7204295
3.8717757
3.6465696
3.743966
3.8068691
3.6976845
3.1316277
2.930708
3.0319975
3.0100072
2.9182203
3.2559145
3.02642
3.1522944
3.1829692
3.0376513
3.3992044
3.2922326
3.1826871
3.1994557
3.3073658
3.4694331
3.3452513
3.2445694
3.2939933
3.3884105
3.5625132
3.4503663
3.331867
3.3774983
3.4899861
3.6165809
3.5341884
3.4964753
3.4143168
3.4549697
3.6514895
3.5894125
3.529977
3.4545709
3.508595
3.6704707
3.6124286
3.521293
3.4537652
3.534908
3.6709129
3.6108079
3.5357736
3.4606015
3.5318387
3.6558779
3.5997386
3.5072499
3.4385505
3.5145718
2.9724169
2.7746462
2.8822648
2.8640126
2.7704317
3.1002891
3.0230317
2.9026351
2.8976941
3.0048381
3.2162196
3.1271064
3.0124906
3.0380029
3.1500758
3.2769211
3.1710758
3.0958012
3.1090979
3.1857259
3.3510263
3.2728286
3.1675886
3.1805741
3.2920134
3.4145212
3.299937
3.2133173
3.2693968
3.3579085
3.4464479
3.3985944
3.3284883
3.2312922
3.2985056
3.4521331
3.4047786
3.330274
3.2533569
3.3275872
3.4597181
3.412661
3.3511941
3.273843
3.3230658
3.4552335
3.3935556
3.3399011
3.2800729
3.3199656
2.854785
2.7597885
2.7040354
2.6857011
2.7426027
2.953134
2.8704325
2.7666069
2.7847677
2.8701958
3.046097
2.9694741
2.867631
2.8561123
2.9726929
3.1023078
2.9781464
2.8986885
2.9540952
3.0315263
3.1707935
3.0736527
2.9910052
3.0188217
3.1206074
3.2119361
3.1220739
3.0406294
3.0819377
3.1655337
3.2297705
3.123269
3.069996
3.1136167
3.1771865
3.2455444
3.1998516
3.1447688
3.0791547
3.1231275
3.2657058
3.0997819
3.1364845
3.224036
3.168502
3.2775052
3.1535707
3.2417914
3.1785819
3.1102095
2.7750685
2.707184
2.6052439
2.5680267
2.6925507
2.8264659
2.7373448
2.6979001
2.7060012
2.7489574
2.909013
2.8437326
2.7589654
2.7501351
2.8442333
2.9426379
2.8800812
2.841701
2.8369071
2.8640457
3.018414
2.937949
2.8736954
2.8952894
2.9600818
3.0528256
2.9517485
2.9103207
2.9562212
3.0100703
3.0706009
3.0352149
2.9898024
2.9209398
2.9580084
3.0792229
3.0417666
2.9913045
2.9294639
2.9716806
3.097775
2.9543469
2.9835163
3.0638647
3.0219158
3.1091064
2.9668398
3.0035599
3.0753201
3.0277519
2.6889022
2.5432352
2.5935509
2.6072722
2.5667632
2.7482609
2.5817339
2.6870714
2.685413
2.5949167
2.7988064
2.7256782
2.6784356
2.6857269
2.7346844
2.8648278
2.7859879
2.723585
2.7362415
2.8214466
2.8801877
2.808547
2.7623752
2.7893762
2.8402212
2.9124577
2.8873493
2.8429011
2.7959847
2.8240731
2.9344914
2.9013625
2.8410621
2.8139512
2.8528446
2.9277851
2.907821
2.8688162
2.8197497
2.8437672
2.9577909
2.8505178
2.8864293
2.9338731
2.881583
2.9625516
2.8412734
2.8887918
2.9425862
2.8898878
2.6522846
2.571328
2.5657462
2.534996
2.5634405
2.6638038
2.5838799
2.570027
2.5667274
2.5816267
2.7146246
2.6655416
2.62153
2.6021545
2.6651016
2.7505649
2.6802028
2.6598317
2.6782035
2.7128342
2.7719924
2.7545237
2.6930741
2.6705839
2.7487402
2.8038821
2.7253536
2.6996426
2.7361092
2.7786962
2.8110061
2.7909736
2.7607871
2.7022175
2.7186779
2.8119096
2.7332721
2.7668133
2.8104097
2.7561304
2.8410352
2.7311213
2.7724247
2.8334034
2.7810506
2.8246282
2.7161912
2.7876513
2.8217785
2.7417985
2.6291479
2.5616643
2.5413349
2.5266064
2.5636955
2.6194261
2.5736105
2.5466081
2.5260916
2.5721841
2.6474901
2.5872415
2.5490541
2.5644904
2.6105949
2.6700383
2.6272477
2.5731432
2.5777915
2.6503772
2.6915724
2.6546648
2.6112936
2.6243295
2.6835978
2.706869
2.6961684
2.646153
2.6473532
2.6982168
2.7130832
2.699038
2.6495583
2.6497251
2.6877284
2.7231768
2.7358538
2.6935169
2.6520538
2.6834669
2.7248595
2.723092
2.6496793
2.6395108
2.6928203
2.7045097
2.6490593
2.6836704
2.7231468
2.6784803
2.5744771
2.4891229
2.485572
2.5158343
2.5369216
2.5601907
2.4977176
2.4675647
2.4905313
2.5352695
2.5627415
2.5067157
2.4733714
2.4970059
2.5372161
2.5700218
2.5541262
2.4945047
2.49433
2.5637724
2.6007587
2.5753131
2.5250544
2.5386681
2.600778
2.6209498
2.5909305
2.5400128
2.5658156
2.6302992
2.6210922
2.5932011
2.5487713
2.5788787
2.6396013
2.6282884
2.6452357
2.5857412
2.5530126
2.5973143
2.6108228
2.6315583
2.5694045
2.5435747
2.5827696
2.6170595
2.642519
2.5895538
2.5445882
2.5833769
2.4978194
2.4438317
2.4405939
2.4632371
2.4764816
2.47696
2.4434995
2.4266901
2.4354809
2.4627543
2.4745736
2.4414029
2.4240342
2.4351893
2.464489
2.4849186
2.4557925
2.4203741
2.434115
2.4821448
2.4916664
2.4773969
2.4315784
2.4362314
2.5089648
2.5039018
2.4782607
2.4369106
2.4654389
2.5192716
2.5106466
2.4723175
2.432812
2.4736463
2.5314758
2.5113875
2.488664
2.4344425
2.4618059
2.539349
2.5051344
2.5279088
2.467671
2.4336659
2.4742738
2.5029467
2.4465876
2.494575
2.5368485
2.4794869
2.4300132
2.4021099
2.3785916
2.3859151
2.4326739
2.4199335
2.3833602
2.3586112
2.3898132
2.4215607
2.4033354
2.3747964
2.3468676
2.3693662
2.4130297
2.3960942
2.3750888
2.3353522
2.3474422
2.4055194
2.4034803
2.3741137
2.3387476
2.3602511
2.4158417
2.3993643
2.3807946
2.3397578
2.3627388
2.4182993
2.3990614
2.375306
2.3378441
2.3752722
2.4192316
2.4045882
2.383005
2.3398847
2.3692314
2.4195252
2.3996078
2.3860702
2.3467584
2.3763981
2.4222804
2.4122111
2.3432679
2.38447
2.4305334
2.3783436
2.3637437
2.3233007
2.3018266
2.3205995
2.3643228
2.3355309
2.3164319
2.2900539
2.3126449
2.346152
2.3222455
2.2868288
2.2663897
2.3050571
2.3327558
2.3052224
2.2977645
2.2568294
2.2737886
2.3221666
2.3135452
2.2800954
2.2456966
2.2861741
2.3219556
2.311787
2.3000583
2.262571
2.2755592
2.3280161
2.306462
2.29754
2.2746332
2.292765
2.3254858
2.3135154
2.3161478
2.2748259
2.2805949
2.3285821
2.3174063
2.2922029
2.2850248
2.3205213
2.3379268
2.317624
2.2603625
2.2851272
2.3319473
2.2958462
2.2637015
2.2580456
2.2124606
2.219803
2.2886707
2.2522221
2.2462328
2.2056865
2.2202492
2.2766631
2.2331705
2.2291799
2.1927084
2.211134
2.2577337
2.2282308
2.2240928
2.1899465
2.2008397
2.2457968
2.2183288
2.2054737
2.1775951
2.2045813
2.2364978
2.236428
2.2232667
2.1902324
2.2064293
2.2495974
2.2459735
2.2235894
2.1939532
2.2253637
2.2640999
2.2447967
2.250961
2.2067455
2.2111332
2.2674006
2.2479912
2.2372962
2.2116792
2.2438626
2.2768599
2.2456445
2.2204581
2.2009041
2.2119456
2.2476259
2.1735359
2.141231
2.1068386
2.1554484
2.1949793
2.1608001
2.1594807
2.1152491
2.1275831
2.1895856
2.1603672
2.146273
2.1106041
2.1355413
2.177243
2.1568887
2.1445419
2.1119052
2.1364981
2.1781259
2.1527199
2.1577475
2.1233869
2.1291913
2.1705756
2.1616799
2.152668
2.1247219
2.1507411
2.1822365
2.1704685
2.1543129
2.124293
2.1523253
2.1833226
2.1735869
2.1706408
2.1376242
2.1557417
2.1978094
2.1832962
2.1695781
2.1412922
2.1607011
2.2005717
2.1721077
2.1606142
2.1308927
2.1573461
2.1936635
2.075944
2.1044665
2.0881134
2.0619932
2.1003756
2.0950632
2.0298128
2.0518928
2.0830763
2.0893486
2.0753899
2.0716134
2.0369561
2.0574974
2.0959969
2.0858714
2.0727086
2.0461033
2.0672356
2.0993579
2.0950249
2.0802696
2.0454002
2.0734149
2.1125569
2.093493
2.0855559
2.0534029
2.0753725
2.1145752
2.0979748
2.0916148
2.0598968
2.0762339
2.1146463
2.1101526
2.090671
2.063342
2.0898133
2.1244114
2.1071926
2.0969899
2.0590524
2.0868067
2.1312687
2.1061709
2.0909212
2.0651439
2.087615
2.1221038
2.05398
2.0582412
1.9881654
2.0146308
2.086186
2.0220276
2.0527362
2.0225806
2.0074338
2.050873
2.0197012
1.9914579
1.9884756
2.0110584
2.0240026
2.0168913
2.0046025
1.9697725
1.9982062
2.0332384
2.0228725
2.0130339
1.9864529
2.0047749
2.0333551
2.0296614
2.0101561
1.9901419
2.0208632
2.0428835
2.0295331
2.022153
1.9915225
2.0113592
2.0488667
2.0374631
2.0222579
1.9921551
2.0194875
2.0545203
2.0375708
2.017178
1.9931692
2.0160616
2.0468856
2.0398084
2.0242811
1.9945874
2.0185955
2.0513697
1.9636425
1.9400755
1.9173389
1.9431329
1.9693686
1.9832294
1.9686666
1.9347453
1.9606967
2.008048
1.9608726
1.9495929
1.9216465
1.943539
1.9757669
1.9539535
1.9408365
1.9232226
1.9422633
1.9622758
1.9579883
1.9578278
1.9245833
1.9432121
1.9756819
1.9652517
1.9473977
1.926581
1.9546861
1.9766142
1.9713956
1.951928
1.9243535
1.9537711
1.9789279
1.9706723
1.9564524
1.9337269
1.9587068
1.9822291
1.9758182
1.9623392
1.9331999
1.9531699
1.9838004
1.9770615
1.9634208
1.9406466
1.9656033
1.9872899
1.8858226
1.8764816
1.8513704
1.8722635
1.9045305
1.9022136
1.8962232
1.8666565
1.8889221
1.9224763
1.8967162
1.8925242
1.8641504
1.8780959
1.9091109
1.9001103
1.8798123
1.8591843
1.8881876
1.9107714
1.901197
1.891031
1.8652582
1.8863162
1.9101234
1.9041652
1.8936305
1.8691357
1.8881576
1.914857
1.9075358
1.8976291
1.8737249
1.8941529
1.9161728
1.9136726
1.9019704
1.8741397
1.8973784
1.9245245
1.9162226
1.8996205
1.8785347
1.9042446
1.9245831
1.9190894
1.9123234
1.875503
1.9005924
1.9323002
1.8174582
1.8398236
1.8021969
1.8071127
1.8459334
1.8414346
1.8199292
1.7962309
1.8258359
1.8564354
1.8345814
1.8306684
1.7971048
1.8174957
1.8529264
1.8369118
1.8372667
1.8089645
1.8240287
1.8487512
1.8407976
1.8311252
1.8045719
1.8296773
1.8537224
1.8449166
1.8326989
1.8081428
1.8348966
1.8578161
1.8498713
1.838716
1.8114971
1.8353906
1.8631275
1.8535258
1.8405881
1.8151792
1.8422702
1.8651244
1.8565468
1.8452137
1.8179393
1.8448344
1.8723984
1.8578301
1.8456943
1.8219313
1.8464199
1.8681407
1.774288
1.7626169
1.7384993
1.7651504
1.7949969
1.7702759
1.7582785
1.7833377
1.7648452
1.7442836
1.776438
1.7738348
1.7466395
1.7629672
1.787054
1.7800186
1.7744659
1.745736
1.7720048
1.7966068
1.783574
1.7748333
1.7527873
1.7762086
1.7944805
1.7830449
1.7789606
1.7526006
1.7725542
1.7980631
1.7880288
1.7778985
1.7547733
1.7810083
1.8020063
1.792831
1.7778347
1.7551498
1.7809052
1.8050316
1.7962772
1.7829281
1.7562409
1.7829718
1.8093739
1.7970541
1.7929623
1.7615751
1.7907028
1.8174135
1.7124415
1.703628
1.7253841
1.7034073
1.6822337
1.7140111
1.7038742
1.7330643
1.7187319
1.6899317
1.720902
1.7133878
1.7396534
1.7080037
1.6832731
1.7129125
1.710106
1.7359705
1.721006
1.6917615
1.7251446
1.7176186
1.7406452
1.7193768
1.6920166
1.7248933
1.7188137
1.693943
1.7206646
1.7416397
1.72646
1.7214905
1.6934992
1.7214296
1.7452077
1.7300563
1.7200658
1.6967479
1.7239985
1.7467629
1.7333968
1.7192311
1.693826
1.7241032
1.7487954
1.7354271
1.7302481
1.7016573
1.7248736
1.7524524
1.6574586
1.6507218
1.6725157
1.6539602
1.6322494
1.6658027
1.6536606
1.6807318
1.6589138
1.6295044
1.6594956
1.6546716
1.6769926
1.658431
1.6306468
1.6649145
1.6530884
1.6745054
1.6480233
1.6213127
1.6577088
1.6580169
1.6849483
1.6619977
1.6314053
1.6636118
1.6599578
1.6288387
1.6557025
1.6850511
1.6656529
1.6558129
1.6276265
1.6598569
1.6865149
1.6622643
1.651149
1.627567
1.6598467
1.6844305
1.6660752
1.6591504
1.6261468
1.6574042
1.6880533
1.6652077
1.6606769
1.6344826
1.6668684
1.6913478
1.6032074
1.6032053
1.6242373
1.597595
1.5773971
1.6044875
1.595899
1.6214403
1.5979687
1.5732708
1.5971921
1.598582
1.6204987
1.590414
1.566139
1.5894077
1.5851758
1.6102301
1.5940782
1.564443
1.5958553
1.594452
1.6188404
1.5886059
1.5590268
1.5897906
1.5931535
1.5661075
1.5935689
1.6165922
1.5922377
1.5908155
1.5610065
1.5917056
1.6190478
1.5813228
1.5942515
1.5656321
1.5961754
1.6219319
1.5934223
1.5886579
1.5581148
1.5935045
1.6194746
1.5964348
1.5908197
1.5571457
1.5942692
1.6259178
1.5480097
1.5409709
1.5691356
1.5508183
1.5271476
1.5395713
1.54658
1.5658304
1.5385909
1.5168766
1.5349047
1.5324214
1.555611
1.5365193
1.5111165
1.5309804
1.5338508
1.5558229
1.5311217
1.505798
1.526546
1.5264834
1.5505287
1.526917
1.5024353
1.5215574
1.5313434
1.5545975
1.5247717
1.5000146
1.5190909
1.5242553
1.5532495
1.5225115
1.4966592
1.527189
1.5252407
1.5583536
1.5245096
1.4907988
1.5231451
1.5141023
1.484235
1.5239973
1.5519588
1.5211958
1.5150906
1.4819047
1.5188987
1.5486301
1.4964224
1.495554
1.5193826
1.4959491
1.4753008
1.4841913
1.4871041
1.5096672
1.4860266
1.4665859
1.475805
1.4748563
1.502956
1.4779013
1.4516278
1.4685874
1.4705776
1.493191
1.4642005
1.4415481
1.4578444
1.4616225
1.490013
1.4571868
1.4282826
1.4586543
1.4568991
1.4864125
1.4507204
1.4209991
1.4509153
1.4518882
1.4848825
1.4521813
1.4188686
1.4502934
1.4518205
1.4787648
1.4404635
1.4116585
1.4331101
1.448912
1.4728267
1.4450094
1.4167119
1.4487997
1.4375712
1.4100994
1.4472827
1.4725443
1.4427059
1.4402399
1.4654522
1.4420524
1.4216332
1.4349251
1.4404502
1.4565018
1.4212321
1.406349
1.4165124
1.4202363
1.4424856
1.4108651
1.3864629
1.4008005
1.4060808
1.4317682
1.4006359
1.3734942
1.3899687
1.3956477
1.4147438
1.3841025
1.3649023
1.3804391
1.3833885
1.4078845
1.3808537
1.3545361
1.3772864
1.3837144
1.4063783
1.3705086
1.3452568
1.3729206
1.3718662
1.4038859
1.3711839
1.3376715
1.377319
1.3776969
1.4046984
1.3665864
1.3417689
1.3667943
1.3670829
1.4002667
1.3672864
1.3300454
1.3914101
1.4000722
1.4128775
1.3761609
1.3644001
1.3735847
1.3787808
1.3971927
1.3675172
1.3503065
1.3499834
1.3572873
1.3776392
1.3516355
1.3329675
1.3275969
1.346776
1.3620767
1.3358309
1.3200035
1.3235222
1.3289395
1.3523889
1.3192465
1.3006854
1.3115295
1.3212435
1.347322
1.3113635
1.2831361
1.3050999
1.304627
1.334063
1.3015393
1.271386
1.2975068
1.3027483
1.3290018
1.2934226
1.2661243
1.2974152
1.2955363
1.3289621
1.2952477
1.2640955
1.2944013
1.2950587
1.322704
1.293354
1.2630608
1.3319907
1.3522694
1.359062
1.3421327
1.3353516
1.3188617
1.3287442
1.3382215
1.2996719
1.2921713
1.2977407
1.3035961
1.3214892
1.2915473
1.2746397
1.2828491
1.2891
1.3090011
1.2725192
1.2556575
1.2599508
1.2652836
1.2879572
1.2560213
1.2355529
1.2468193
1.2535267
1.2701036
1.232371
1.2180672
1.2305039
1.236412
1.2590976
1.2320476
1.2067649
1.2312106
1.2370082
1.2559558
1.2226534
1.203203
1.2248644
1.2280964
1.2543701
1.2248758
1.195633
1.2238378
1.2268216
1.2574424
1.2201466
1.1904121
3.5143122
3.4122477
3.3850684
3.4059968
3.4552273
3.5123715
3.4167831
3.3766805
3.4046498
3.4534593
3.5312845
3.4252471