/*--------------------------------*- C++ -*----------------------------------*\
| =========                 |                                                 |
| \\      /  F ield         | OpenFOAM: The Open Source CFD Toolbox           |
|  \\    /   O peration     | Version:  2.4.0                                 |
|   \\  /    A nd           | Web:      www.OpenFOAM.org                      |
|    \\/     M anipulation  |                                                 |
\*---------------------------------------------------------------------------*/
FoamFile
{
    version     2.0;
    format      ascii;
    class       volTensorField;
    location    "0.00574951018";
    object      stressWall;
}
// * * * * * * * * * * * * * * * * * * * * * * * * * * * * * * * * * * * * * //

dimensions      [1 -1 -2 0 0 0 0];

internalField   uniform (0 0 0 0 0 0 0 0 0);

boundaryField
{
    InLet
    {
        type            calculated;
        value           uniform (0 0 0 0 0 0 0 0 0);
    }
    OutLet
    {
        type            calculated;
        value           uniform (0 0 0 0 0 0 0 0 0);
    }
    Wall
    {
        type            calculated;
        value           nonuniform List<tensor> 
10990
(
(55.806905 -1.9274764 0.10050372 -1.9274764 24.337002 -0.05633128 0.10050372 -0.05633128 25.760839)
(56.050238 -1.6178497 0.16636636 -1.6178497 25.335077 -0.066579705 0.16636636 -0.066579705 26.483466)
(55.81109 -1.3467403 0.19223477 -1.3467403 26.09305 -0.019615748 0.19223477 -0.019615748 26.94132)
(55.78457 -1.1101629 0.16418159 -1.1101629 26.672921 0.01282845 0.16418159 0.01282845 27.267158)
(56.152392 -0.83896145 0.13266879 -0.83896145 27.092481 0.028516343 0.13266879 0.028516343 27.553894)
(56.93001 -0.52396817 0.087198442 -0.52396817 27.502757 0.07884859 0.087198442 0.07884859 27.986056)
(57.412382 -0.19537946 0.069680921 -0.19537946 27.79475 0.041940049 0.069680921 0.041940049 28.206648)
(57.558 0.16903456 0.050296268 0.16903456 27.840618 0.031648295 0.050296268 0.031648295 28.221661)
(57.496699 0.5518059 0.039636236 0.5518059 27.688348 0.024416823 0.039636236 0.024416823 28.048567)
(57.472348 0.90550438 0.031119297 0.90550438 27.321078 0.012550762 0.031119297 0.012550762 27.802268)
(57.385507 1.2371214 0.0099440097 1.2371214 26.838157 -0.032538244 0.0099440097 -0.032538244 27.483823)
(57.34612 1.5753328 0.011571673 1.5753328 26.28325 0.0079633869 0.011571673 0.0079633869 27.051613)
(56.889812 1.8455642 0.0093836246 1.8455642 25.151993 -0.0088879775 0.0093836246 -0.0088879775 26.291917)
(56.590876 2.0325795 0.032870393 2.0325795 23.954361 -0.018589577 0.032870393 -0.018589577 25.297026)
(55.927569 2.0930259 0.09026285 2.0930259 22.294717 -0.044096512 0.09026285 -0.044096512 24.041547)
(54.957998 2.0659869 0.13964369 2.0659869 20.485113 -0.064104697 0.13964369 -0.064104697 22.601972)
(52.972164 1.6930923 0.17005441 1.6930923 17.860176 -0.027951034 0.17005441 -0.027951034 20.358282)
(50.448143 1.1907764 0.17512397 1.1907764 15.399758 0.01494596 0.17512397 0.01494596 18.027025)
(55.685724 -1.9027203 0.26450036 -1.9027203 24.333639 -0.032504867 0.26450036 -0.032504867 25.766859)
(55.825201 -1.5761595 0.29638754 -1.5761595 25.25531 -0.0030482987 0.29638754 -0.0030482987 26.430656)
(55.319552 -1.3296391 0.34188385 -1.3296391 25.927743 0.0025421536 0.34188385 0.0025421536 26.787296)
(55.177678 -1.1033354 0.34208986 -1.1033354 26.451002 0.032752906 0.34208986 0.032752906 27.019151)
(55.80896 -0.86387148 0.32644448 -0.86387148 27.010191 0.050985739 0.32644448 0.050985739 27.483295)
(56.911193 -0.5357697 0.29043207 -0.5357697 27.445665 0.097387806 0.29043207 0.097387806 27.920045)
(57.61352 -0.18902786 0.28243396 -0.18902786 27.782038 0.045886792 0.28243396 0.045886792 28.198382)
(57.740579 0.17030888 0.26392569 0.17030888 27.804226 -0.014684349 0.26392569 -0.014684349 28.216124)
(57.743767 0.53027577 0.26753884 0.53027577 27.716568 0.014558171 0.26753884 0.014558171 28.085354)
(57.617473 0.87226838 0.25671636 0.87226838 27.321282 0.0019817707 0.25671636 0.0019817707 27.850342)
(57.672087 1.2031905 0.22775748 1.2031905 26.894439 -0.032538553 0.22775748 -0.032538553 27.502138)
(57.726604 1.5605234 0.2159848 1.5605234 26.408926 -0.050124418 0.2159848 -0.050124418 27.164069)
(57.503035 1.8331689 0.1739323 1.8331689 25.340476 -0.0822243 0.1739323 -0.0822243 26.335238)
(57.153506 2.0192452 0.19275098 2.0192452 24.039389 -0.038950323 0.19275098 -0.038950323 25.374081)
(56.228599 2.0904464 0.2057469 2.0904464 22.331714 -0.082790851 0.2057469 -0.082790851 24.032432)
(54.851903 2.0678842 0.2319999 2.0678842 20.416999 -0.10159171 0.2319999 -0.10159171 22.477549)
(52.713741 1.7135904 0.23036741 1.7135904 17.821968 -0.090050326 0.23036741 -0.090050326 20.256663)
(50.30789 1.2133484 0.26345695 1.2133484 15.443448 -0.03398814 0.26345695 -0.03398814 18.054834)
(55.353565 -1.8913911 0.40528576 -1.8913911 24.296641 0.030789523 0.40528576 0.030789523 25.683311)
(55.431932 -1.5726318 0.43217731 -1.5726318 25.155185 0.013271835 0.43217731 0.013271835 26.309565)
(54.99648 -1.3152287 0.46438047 -1.3152287 25.777026 0.057583595 0.46438047 0.057583595 26.651103)
(54.952807 -1.0975738 0.49510266 -1.0975738 26.304529 0.094064254 0.49510266 0.094064254 26.927283)
(55.746879 -0.87671708 0.537142 -0.87671708 26.924922 0.078205413 0.537142 0.078205413 27.372807)
(56.872943 -0.56084655 0.56303814 -0.56084655 27.369739 0.065685126 0.56303814 0.065685126 27.771652)
(57.590613 -0.20922979 0.57697665 -0.20922979 27.640039 0.052996237 0.57697665 0.052996237 27.986965)
(58.00099 0.16551077 0.54995301 0.16551077 27.846181 0.031873475 0.54995301 0.031873475 28.028839)
(57.800765 0.53201737 0.53864393 0.53201737 27.651316 0.023125642 0.53864393 0.023125642 27.871319)
(57.787892 0.8653817 0.52354906 0.8653817 27.337079 -0.014158584 0.52354906 -0.014158584 27.681432)
(58.108565 1.2047787 0.5032 1.2047787 26.99171 0.0023473989 0.5032 0.0023473989 27.501077)
(58.09716 1.5566072 0.45801983 1.5566072 26.401828 -0.14850406 0.45801983 -0.14850406 27.103025)
(57.65873 1.8146689 0.41803174 1.8146689 25.218881 -0.10693766 0.41803174 -0.10693766 26.260955)
(57.08765 2.041969 0.39546059 2.041969 23.979824 -0.088105961 0.39546059 -0.088105961 25.286337)
(56.225793 2.1276348 0.39149308 2.1276348 22.358934 -0.070900125 0.39149308 -0.070900125 24.04444)
(54.739543 2.0316804 0.34002282 2.0316804 20.27645 -0.13977311 0.34002282 -0.13977311 22.337531)
(52.689625 1.7558602 0.32084299 1.7558602 17.902656 -0.11789214 0.32084299 -0.11789214 20.323657)
(50.305666 1.2602397 0.31141027 1.2602397 15.579973 -0.10483771 0.31141027 -0.10483771 18.120757)
(54.982381 -1.8655378 0.53679316 -1.8655378 24.204658 0.068610778 0.53679316 0.068610778 25.602655)
(55.144819 -1.5592859 0.53981155 -1.5592859 25.078007 0.077007278 0.53981155 0.077007278 26.247868)
(54.708409 -1.2938608 0.58733703 -1.2938608 25.622291 0.11164235 0.58733703 0.11164235 26.528059)
(54.862029 -1.0865246 0.67538397 -1.0865246 26.203203 0.098327669 0.67538397 0.098327669 26.826648)
(55.575626 -0.86096336 0.77138276 -0.86096336 26.771068 0.093169455 0.77138276 0.093169455 27.169379)
(56.438796 -0.54376797 0.8467568 -0.54376797 27.101809 0.042576787 0.8467568 0.042576787 27.388806)
(56.984331 -0.2210327 0.8997192 -0.2210327 27.371863 0.056606073 0.8997192 0.056606073 27.630504)
(57.711578 0.1205168 0.89255469 0.1205168 27.592376 0.030314247 0.89255469 0.030314247 27.728096)
(58.332685 0.50277492 0.8605928 0.50277492 27.645651 -0.020167745 0.8605928 -0.020167745 27.815428)
(58.258706 0.88414096 0.85672431 0.88414096 27.374123 -0.0088118011 0.85672431 -0.0088118011 27.682694)
(58.499203 1.2299819 0.83472352 1.2299819 27.004466 -0.019725187 0.83472352 -0.019725187 27.40384)
(58.638476 1.576885 0.76038856 1.576885 26.399275 -0.12619736 0.76038856 -0.12619736 26.950849)
(58.247004 1.8690711 0.67628977 1.8690711 25.377692 -0.18466237 0.67628977 -0.18466237 26.346295)
(57.407374 2.0794793 0.60075019 2.0794793 23.997988 -0.17466389 0.60075019 -0.17466389 25.25025)
(56.219898 2.13653 0.52493737 2.13653 22.257905 -0.19496866 0.52493737 -0.19496866 23.930549)
(54.655897 2.0374401 0.46003773 2.0374401 20.210333 -0.19821055 0.46003773 -0.19821055 22.253292)
(52.700604 1.7814403 0.4163312 1.7814403 17.996586 -0.17079791 0.4163312 -0.17079791 20.374301)
(50.353878 1.2758668 0.40093678 1.2758668 15.710126 -0.15387667 0.40093678 -0.15387667 18.2272)
(54.774925 -1.8234596 0.63374722 -1.8234596 24.141006 0.13303298 0.63374722 0.13303298 25.426357)
(54.96575 -1.5556416 0.65369911 -1.5556416 25.022192 0.1406176 0.65369911 0.1406176 26.120845)
(54.697604 -1.2747285 0.72744187 -1.2747285 25.56108 0.16361027 0.72744187 0.16361027 26.415091)
(54.882178 -1.0350101 0.88385712 -1.0350101 26.033969 0.10281176 0.88385712 0.10281176 26.673791)
(55.380709 -0.82349249 1.0427592 -0.82349249 26.549646 0.019429304 1.0427592 0.019429304 26.85912)
(56.125144 -0.50488967 1.1458058 -0.50488967 26.848154 0.052367715 1.1458058 0.052367715 27.035053)
(56.579968 -0.20769815 1.2170648 -0.20769815 27.014734 0.023556801 1.2170648 0.023556801 27.073921)
(57.667233 0.11857222 1.2507091 0.11857222 27.337758 -0.012504656 1.2507091 -0.012504656 27.333782)
(58.531275 0.51527389 1.258962 0.51527389 27.490079 -0.0039341645 1.258962 -0.0039341645 27.508663)
(58.274676 0.90386715 1.2280719 0.90386715 27.119477 0.00035774298 1.2280719 0.00035774298 27.202719)
(58.442368 1.2187306 1.2102739 1.2187306 26.773243 -0.080833401 1.2102739 -0.080833401 27.049751)
(58.750504 1.5413504 1.1094933 1.5413504 26.204144 -0.20026255 1.1094933 -0.20026255 26.634915)
(58.732714 1.8380711 0.98593563 1.8380711 25.327038 -0.27471532 0.98593563 -0.27471532 26.156822)
(57.817349 2.0829313 0.86305686 2.0829313 23.950852 -0.23124667 0.86305686 -0.23124667 25.119556)
(56.384632 2.1476006 0.73468512 2.1476006 22.192685 -0.22707221 0.73468512 -0.22707221 23.800074)
(54.7177 2.0917119 0.62223468 2.0917119 20.288658 -0.23014487 0.62223468 -0.23014487 22.231511)
(52.749228 1.8237226 0.51302967 1.8237226 18.115869 -0.24439444 0.51302967 -0.24439444 20.432788)
(50.53682 1.362272 0.49886148 1.362272 15.912094 -0.20683269 0.49886148 -0.20683269 18.374063)
(54.636522 -1.7774167 0.75402099 -1.7774167 24.088487 0.17491321 0.75402099 0.17491321 25.395385)
(54.960105 -1.5109769 0.79694444 -1.5109769 24.961833 0.19327192 0.79694444 0.19327192 26.075297)
(54.927528 -1.2205119 0.92653873 -1.2205119 25.522152 0.19656691 0.92653873 0.19656691 26.386797)
(54.973146 -0.97389219 1.127108 -0.97389219 25.965235 0.10308968 1.127108 0.10308968 26.452153)
(55.022879 -0.72189506 1.2880299 -0.72189506 26.302366 0.11524996 1.2880299 0.11524996 26.373551)
(55.294927 -0.43616121 1.4545717 -0.43616121 26.419638 0.027231047 1.4545717 0.027231047 26.397401)
(55.614145 -0.1325731 1.5740931 -0.1325731 26.49168 0.023352167 1.5740931 0.023352167 26.433049)
(56.297946 0.16530405 1.6759829 0.16530405 26.599639 -0.026537753 1.6759829 -0.026537753 26.554872)
(57.205938 0.49348978 1.6939951 0.49348978 26.747385 -0.082219674 1.6939951 -0.082219674 26.616767)
(57.274461 0.83165317 1.6375169 0.83165317 26.500265 -0.096556718 1.6375169 -0.096556718 26.387729)
(57.610134 1.1342304 1.5893846 1.1342304 26.094825 -0.13350313 1.5893846 -0.13350313 26.256505)
(58.072031 1.4555878 1.4852865 1.4555878 25.677437 -0.23056974 1.4852865 -0.23056974 26.021165)
(58.445913 1.7703817 1.3454796 1.7703817 25.036807 -0.31202292 1.3454796 -0.31202292 25.737405)
(57.843221 2.0474133 1.1690689 2.0474133 23.823536 -0.30286117 1.1690689 -0.30286117 24.916885)
(56.585034 2.1562022 0.94859783 2.1562022 22.246301 -0.32361896 0.94859783 -0.32361896 23.74823)
(54.945389 2.1072544 0.79738355 2.1072544 20.398658 -0.26815441 0.79738355 -0.26815441 22.258257)
(52.994448 1.8457761 0.61697405 1.8457761 18.282902 -0.31274637 0.61697405 -0.31274637 20.544916)
(50.846472 1.4245473 0.57681796 1.4245473 16.147452 -0.28073538 0.57681796 -0.28073538 18.550167)
(54.950228 -1.7490962 0.88213695 -1.7490962 24.230098 0.27131116 0.88213695 0.27131116 25.454032)
(55.222235 -1.4639587 0.95714175 -1.4639587 25.005518 0.27290652 0.95714175 0.27290652 26.003317)
(55.302889 -1.144738 1.1420262 -1.144738 25.495324 0.23057909 1.1420262 0.23057909 26.180107)
(55.09447 -0.85671082 1.3616538 -0.85671082 25.807736 0.16549108 1.3616538 0.16549108 26.108779)
(54.696133 -0.57928319 1.559638 -0.57928319 25.87107 0.057685776 1.559638 0.057685776 25.936285)
(54.419256 -0.27034334 1.7112127 -0.27034334 25.815202 0.061732635 1.7112127 0.061732635 25.748308)
(54.346704 0.0025550809 1.8090736 0.0025550809 25.760929 -0.042585444 1.8090736 -0.042585444 25.494251)
(54.884235 0.29761096 1.9090481 0.29761096 25.72907 -0.086423013 1.9090481 -0.086423013 25.510289)
(55.38519 0.58574264 1.981032 0.58574264 25.707626 -0.11144555 1.981032 -0.11144555 25.470689)
(55.27142 0.84173318 1.9828291 0.84173318 25.493818 -0.16174605 1.9828291 -0.16174605 25.268019)
(55.812216 1.0807161 1.9351057 1.0807161 25.191 -0.18729095 1.9351057 -0.18729095 25.191155)
(56.468065 1.3735225 1.8206003 1.3735225 24.85518 -0.22619603 1.8206003 -0.22619603 25.042995)
(57.171903 1.6582142 1.6933694 1.6582142 24.370042 -0.34900039 1.6933694 -0.34900039 24.973523)
(57.220232 1.9599012 1.4918543 1.9599012 23.49599 -0.35977319 1.4918543 -0.35977319 24.445747)
(56.556431 2.1019014 1.2017938 2.1019014 22.213026 -0.41366807 1.2017938 -0.41366807 23.54012)
(55.193159 2.0826021 0.9357291 2.0826021 20.521561 -0.42315496 0.9357291 -0.42315496 22.243795)
(53.386651 1.8593797 0.75061496 1.8593797 18.511265 -0.35974857 0.75061496 -0.35974857 20.574963)
(51.284256 1.5282416 0.65658643 1.5282416 16.487919 -0.36629269 0.65658643 -0.36629269 18.773967)
(55.381143 -1.6847416 1.0530121 -1.6847416 24.363171 0.31401258 1.0530121 0.31401258 25.535901)
(55.608698 -1.4059202 1.1658957 -1.4059202 25.127642 0.33225599 1.1658957 0.33225599 26.007497)
(55.794026 -1.0715287 1.402231 -1.0715287 25.536859 0.21946443 1.402231 0.21946443 26.017871)
(55.42573 -0.74158193 1.6025774 -0.74158193 25.6814 0.21694893 1.6025774 0.21694893 25.793139)
(54.807171 -0.41940158 1.7493658 -0.41940158 25.575243 0.14569571 1.7493658 0.14569571 25.399867)
(54.244753 -0.1041783 1.8673595 -0.1041783 25.305693 0.07196319 1.8673595 0.07196319 25.021125)
(53.949746 0.17367676 1.9742326 0.17367676 25.202822 -0.039495314 1.9742326 -0.039495314 24.811972)
(54.259527 0.46520778 2.044844 0.46520778 25.114851 -0.1150683 2.044844 -0.1150683 24.71807)
(54.038732 0.70968489 2.114462 0.70968489 24.853564 -0.14801651 2.114462 -0.14801651 24.471102)
(53.58254 0.88489648 2.1049738 0.88489648 24.513117 -0.22316403 2.1049738 -0.22316403 24.107203)
(54.168601 1.0400615 2.0662922 1.0400615 24.283907 -0.28599098 2.0662922 -0.28599098 24.03145)
(54.972167 1.2807198 1.9827033 1.2807198 23.929092 -0.28684081 1.9827033 -0.28684081 23.961567)
(55.77862 1.5773683 1.859371 1.5773683 23.62575 -0.35319187 1.859371 -0.35319187 23.855611)
(56.137191 1.8179751 1.6869677 1.8179751 22.937097 -0.50060965 1.6869677 -0.50060965 23.666169)
(55.973015 1.9659799 1.4456396 1.9659799 21.886054 -0.49806453 1.4456396 -0.49806453 23.064762)
(55.210756 2.0148203 1.1883361 2.0148203 20.584458 -0.46494292 1.1883361 -0.46494292 22.166961)
(53.779446 1.857768 0.94765983 1.857768 18.833527 -0.40388735 0.94765983 -0.40388735 20.80771)
(51.70693 1.5854235 0.74718151 1.5854235 16.881933 -0.44263324 0.74718151 -0.44263324 19.019172)
(55.753485 -1.5810084 1.2439193 -1.5810084 24.545739 0.40721501 1.2439193 0.40721501 25.530971)
(56.060903 -1.2727146 1.4559766 -1.2727146 25.100422 0.28542235 1.4559766 0.28542235 25.798731)
(56.126918 -0.94640927 1.6936703 -0.94640927 25.396385 0.30839468 1.6936703 0.30839468 25.631269)
(55.585354 -0.6365775 1.8640657 -0.6365775 25.331453 0.24279829 1.8640657 0.24279829 25.143165)
(54.868277 -0.3170523 1.9619042 -0.3170523 25.168585 0.19297222 1.9619042 0.19297222 24.654884)
(54.346502 -0.004836135 2.0298269 -0.004836135 24.814996 0.09393726 2.0298269 0.09393726 24.223841)
(54.149699 0.27617694 2.0744479 0.27617694 24.705076 -0.021881781 2.0744479 -0.021881781 23.999624)
(54.227747 0.58460866 2.1142565 0.58460866 24.600499 -0.061718365 2.1142565 -0.061718365 23.834135)
(53.791176 0.80454407 2.1328708 0.80454407 24.27451 -0.14319498 2.1328708 -0.14319498 23.525903)
(53.342566 0.93824075 2.1393772 0.93824075 23.929736 -0.27341907 2.1393772 -0.27341907 23.227312)
(53.660209 1.1103678 2.1397501 1.1103678 23.683702 -0.27571383 2.1397501 -0.27571383 23.122999)
(54.28239 1.2759807 2.0812881 1.2759807 23.232697 -0.33522685 2.0812881 -0.33522685 23.037268)
(54.789207 1.4856087 1.969267 1.4856087 22.793905 -0.46359723 1.969267 -0.46359723 22.907643)
(54.95885 1.6723822 1.7841172 1.6723822 22.09214 -0.57385207 1.7841172 -0.57385207 22.581663)
(54.940932 1.8502184 1.6094824 1.8502184 21.354812 -0.60583343 1.6094824 -0.60583343 22.233118)
(54.633438 1.9487701 1.3903458 1.9487701 20.430527 -0.59911969 1.3903458 -0.59911969 21.736731)
(53.791696 1.8625926 1.1297096 1.8625926 19.106386 -0.53807439 1.1297096 -0.53807439 20.851019)
(52.11055 1.6508112 0.90255109 1.6508112 17.399775 -0.50987611 0.90255109 -0.50987611 19.412108)
(56.200414 -1.4947476 1.5119869 -1.4947476 24.631012 0.40724525 1.5119869 0.40724525 25.348673)
(56.378607 -1.2010805 1.7272079 -1.2010805 24.892408 0.3994872 1.7272079 0.3994872 25.285303)
(56.397546 -0.90057057 1.9270638 -0.90057057 25.013157 0.38985414 1.9270638 0.38985414 24.937914)
(55.826164 -0.60025308 2.0550904 -0.60025308 24.916909 0.32423711 2.0550904 0.32423711 24.438419)
(55.135349 -0.30107805 2.1580691 -0.30107805 24.742781 0.23570968 2.1580691 0.23570968 24.044853)
(54.317082 0.00030605342 2.2076877 0.00030605342 24.40723 0.1389928 2.2076877 0.1389928 23.592562)
(54.566194 0.30639825 2.1997971 0.30639825 24.422432 0.043461046 2.1997971 0.043461046 23.471314)
(54.583231 0.60116 2.208842 0.60116 24.295853 -0.078861175 2.208842 -0.078861175 23.264859)
(54.318658 0.84513255 2.2157313 0.84513255 23.979894 -0.14764395 2.2157313 -0.14764395 23.022759)
(53.9834 1.0178425 2.2540486 1.0178425 23.684421 -0.24163985 2.2540486 -0.24163985 22.827809)
(53.943959 1.1604823 2.1988843 1.1604823 23.363372 -0.32947625 2.1988843 -0.32947625 22.564892)
(54.245581 1.3086782 2.1172182 1.3086782 22.812184 -0.4000472 2.1172182 -0.4000472 22.348725)
(54.481804 1.4914926 1.9975025 1.4914926 22.281284 -0.50621126 1.9975025 -0.50621126 22.158084)
(54.354623 1.6379693 1.8355774 1.6379693 21.506851 -0.647296 1.8355774 -0.647296 21.816435)
(54.090726 1.7384196 1.6511526 1.7384196 20.609657 -0.69866316 1.6511526 -0.69866316 21.374786)
(53.700693 1.8236369 1.4696079 1.8236369 19.759818 -0.68699775 1.4696079 -0.68699775 20.935877)
(53.125219 1.7638475 1.2415729 1.7638475 18.770789 -0.63897262 1.2415729 -0.63897262 20.346466)
(52.29847 1.6899918 1.1029996 1.6899918 17.77341 -0.5474392 1.1029996 -0.5474392 19.694087)
(55.684334 -1.7342668 1.4553955 -1.7342668 23.848631 0.52142409 1.4553955 0.52142409 24.697839)
(55.239243 -1.8167686 1.2406791 -1.8167686 23.55531 0.46547288 1.2406791 0.46547288 24.699672)
(54.862165 -1.8561771 1.0941732 -1.8561771 23.304496 0.37180239 1.0941732 0.37180239 24.657685)
(54.533107 -1.8893255 0.93975256 -1.8893255 23.158167 0.31305728 0.93975256 0.31305728 24.614329)
(54.253156 -1.8987118 0.79044594 -1.8987118 23.013097 0.22467852 0.79044594 0.22467852 24.535201)
(54.11145 -1.929636 0.6658964 -1.929636 22.94399 0.15131572 0.6658964 0.15131572 24.504618)
(54.303597 -1.9606786 0.54872344 -1.9606786 22.950838 0.10041879 0.54872344 0.10041879 24.597825)
(54.761174 -1.9703116 0.40180296 -1.9703116 22.998645 0.056431268 0.40180296 0.056431268 24.70151)
(54.988357 -1.9968466 0.22390359 -1.9968466 23.006134 0.014193139 0.22390359 0.014193139 24.756868)
(55.231606 -2.0226083 0.054155282 -2.0226083 23.009745 -0.056482771 0.054155282 -0.056482771 24.710829)
(54.789266 -1.807292 1.5122785 -1.807292 22.685314 0.59092912 1.5122785 0.59092912 23.692234)
(54.331379 -1.9171333 1.292717 -1.9171333 22.40512 0.53518111 1.292717 0.53518111 23.676576)
(53.928148 -1.9322303 1.1635483 -1.9322303 22.091155 0.42564695 1.1635483 0.42564695 23.636836)
(53.829311 -1.9436807 1.0270199 -1.9436807 21.978519 0.36132772 1.0270199 0.36132772 23.715954)
(53.956954 -1.9564468 0.85770042 -1.9564468 21.938532 0.27118779 0.85770042 0.27118779 23.705928)
(53.870785 -1.9955473 0.68368619 -1.9955473 21.903357 0.21856708 0.68368619 0.21856708 23.720604)
(54.100161 -2.0123986 0.54520408 -2.0123986 21.902651 0.14291635 0.54520408 0.14291635 23.736125)
(54.500088 -2.0291747 0.39239645 -2.0291747 21.920251 0.071733124 0.39239645 0.071733124 23.868945)
(54.518486 -2.0395547 0.21874384 -2.0395547 21.837607 -0.0069215732 0.21874384 -0.0069215732 23.769665)
(54.720818 -2.0600685 0.019252106 -2.0600685 21.799115 -0.039946293 0.019252106 -0.039946293 23.742594)
(53.476082 -1.8752776 1.5669304 -1.8752776 21.375566 0.62055678 1.5669304 0.62055678 22.462385)
(52.936781 -1.9196437 1.3577577 -1.9196437 20.936996 0.56004473 1.3577577 0.56004473 22.443814)
(52.488204 -1.9438886 1.2195561 -1.9438886 20.652173 0.48780788 1.2195561 0.48780788 22.359504)
(53.027937 -1.9629289 1.0907242 -1.9629289 20.694742 0.41836633 1.0907242 0.41836633 22.568644)
(53.357016 -1.9800171 0.89899401 -1.9800171 20.651016 0.35285413 0.89899401 0.35285413 22.683266)
(53.475107 -1.9806859 0.72358873 -1.9806859 20.560698 0.2376807 0.72358873 0.2376807 22.60519)
(53.773086 -2.0355038 0.546215 -2.0355038 20.600199 0.16971782 0.546215 0.16971782 22.637575)
(53.932013 -2.0653143 0.35051524 -2.0653143 20.5543 0.11818435 0.35051524 0.11818435 22.650173)
(53.702086 -2.0513847 0.17149607 -2.0513847 20.374715 0.034995325 0.17149607 0.034995325 22.578318)
(53.630704 -2.0505501 -0.015094713 -2.0505501 20.24571 -0.020225614 -0.015094713 -0.020225614 22.476132)
(52.053867 -1.7724759 1.517285 -1.7724759 19.853405 0.71663761 1.517285 0.71663761 21.092916)
(51.407853 -1.8207329 1.3227853 -1.8207329 19.380315 0.63030496 1.3227853 0.63030496 21.011407)
(50.930754 -1.8029141 1.185826 -1.8029141 19.038153 0.57977502 1.185826 0.57977502 20.971383)
(51.828863 -1.7933339 1.0694402 -1.7933339 19.04095 0.47760278 1.0694402 0.47760278 21.143307)
(52.19002 -1.8395708 0.86000403 -1.8395708 18.980254 0.40790994 0.86000403 0.40790994 21.246244)
(52.230851 -1.8881648 0.71596482 -1.8881648 18.858735 0.25531318 0.71596482 0.25531318 21.160609)
(52.473516 -1.9146764 0.51773322 -1.9146764 18.814424 0.20671213 0.51773322 0.20671213 21.215614)
(52.459546 -1.9214845 0.30495849 -1.9214845 18.683496 0.15132408 0.30495849 0.15132408 21.045652)
(52.05505 -1.9264643 0.092473864 -1.9264643 18.498459 0.11202007 0.092473864 0.11202007 20.904142)
(51.34463 -1.7671563 0.080139683 -1.7671563 17.932315 -0.11673771 0.080139683 -0.11673771 20.521986)
(50.482907 -1.5802916 1.4110689 -1.5802916 18.169402 0.79974417 1.4110689 0.79974417 19.505248)
(49.852956 -1.6080587 1.2084063 -1.6080587 17.682927 0.71890149 1.2084063 0.71890149 19.413873)
(49.35156 -1.5853646 1.1056367 -1.5853646 17.26901 0.60662214 1.1056367 0.60662214 19.338812)
(49.954496 -1.6066101 1.0081628 -1.6066101 17.163411 0.47822684 1.0081628 0.47822684 19.403611)
(50.270013 -1.6378141 0.82302398 -1.6378141 17.042828 0.38450401 0.82302398 0.38450401 19.440318)
(50.07742 -1.6885373 0.64589478 -1.6885373 16.861158 0.29787803 0.64589478 0.29787803 19.366185)
(50.233045 -1.7097706 0.4810312 -1.7097706 16.782294 0.22878679 0.4810312 0.22878679 19.337991)
(50.216601 -1.7214488 0.30176592 -1.7214488 16.669404 0.161844 0.30176592 0.161844 19.249315)
(49.769862 -1.7175314 0.10273036 -1.7175314 16.499922 0.12471515 0.10273036 0.12471515 19.077968)
(48.942408 -1.5418065 0.28997759 -1.5418065 16.099703 -0.27316584 0.28997759 -0.27316584 18.854297)
(48.470559 -1.3144429 1.2927431 -1.3144429 16.315211 0.86144302 1.2927431 0.86144302 17.834075)
(47.845491 -1.3211887 1.0909309 -1.3211887 15.782272 0.75572117 1.0909309 0.75572117 17.657517)
(47.273168 -1.3132082 0.95827272 -1.3132082 15.338992 0.62601077 0.95827272 0.62601077 17.458556)
(47.194197 -1.3136224 0.87842919 -1.3136224 15.039021 0.49058721 0.87842919 0.49058721 17.387529)
(47.34891 -1.2927605 0.71699529 -1.2927605 14.86063 0.39119018 0.71699529 0.39119018 17.374711)
(46.968983 -1.3266942 0.54669718 -1.3266942 14.627036 0.31955551 0.54669718 0.31955551 17.282005)
(46.975972 -1.32798 0.40991702 -1.32798 14.512831 0.262126 0.40991702 0.262126 17.225496)
(46.957615 -1.3252771 0.27654534 -1.3252771 14.414798 0.19158882 0.27654534 0.19158882 17.106852)
(46.587749 -1.256571 0.13381441 -1.256571 14.258782 0.13146371 0.13381441 0.13146371 16.9796)
(46.61406 -1.4107908 0.24924346 -1.4107908 14.599042 -0.15687232 0.24924346 -0.15687232 17.316986)
(45.851096 -0.98706048 1.1481807 -0.98706048 14.413848 0.8981402 1.1481807 0.8981402 16.063292)
(45.211189 -0.98701765 0.93146972 -0.98701765 13.869 0.7851134 0.93146972 0.7851134 15.804315)
(44.386442 -0.90156281 0.81385463 -0.90156281 13.3046 0.6162052 0.81385463 0.6162052 15.482811)
(43.7855 -0.90678869 0.71437046 -0.90678869 12.921043 0.50524419 0.71437046 0.50524419 15.303116)
(43.754833 -0.88208986 0.5608253 -0.88208986 12.721284 0.42360024 0.5608253 0.42360024 15.221669)
(43.165491 -0.85238351 0.43957668 -0.85238351 12.421651 0.32164947 0.43957668 0.32164947 15.029244)
(42.96167 -0.79335106 0.37637719 -0.79335106 12.2342 0.23415402 0.37637719 0.23415402 14.92965)
(42.872458 -0.75486485 0.28119878 -0.75486485 12.108033 0.16930839 0.28119878 0.16930839 14.818468)
(42.618835 -0.69186308 0.1617012 -0.69186308 11.974688 0.11533548 0.1617012 0.11533548 14.671913)
(42.421023 -0.67080958 0.11801723 -0.67080958 11.959634 0.0083029121 0.11801723 0.0083029121 14.636997)
(43.039391 -0.74137922 1.0467011 -0.74137922 12.805546 0.88536671 1.0467011 0.88536671 14.448815)
(42.220446 -0.6471305 0.85204729 -0.6471305 12.172556 0.73598042 0.85204729 0.73598042 14.108709)
(41.281077 -0.56729203 0.7009573 -0.56729203 11.63791 0.61249608 0.7009573 0.61249608 13.81458)
(40.251748 -0.49299569 0.58121956 -0.49299569 11.17409 0.50514586 0.58121956 0.50514586 13.517675)
(39.982194 -0.40528509 0.49628714 -0.40528509 10.910197 0.39283177 0.49628714 0.39283177 13.356874)
(39.208965 -0.29391511 0.38104745 -0.29391511 10.586359 0.30399262 0.38104745 0.30399262 13.148367)
(38.926938 -0.24779493 0.30302489 -0.24779493 10.414142 0.23914061 0.30302489 0.23914061 13.0183)
(38.730226 -0.17750852 0.25519239 -0.17750852 10.269736 0.16295358 0.25519239 0.16295358 12.921587)
(38.468884 -0.093188026 0.20618727 -0.093188026 10.132166 0.079788381 0.20618727 0.079788381 12.766938)
(38.186129 0.01285919 0.13426109 0.01285919 10.005705 0.0078069817 0.13426109 0.0078069817 12.641717)
(38.902616 -0.1104662 0.75866096 -0.1104662 10.719789 0.89573221 0.75866096 0.89573221 12.350151)
(38.0776 -0.0040017925 0.60819353 -0.0040017925 10.181325 0.75058475 0.60819353 0.75058475 12.080725)
(37.123699 0.099436094 0.47921521 0.099436094 9.7265484 0.62423124 0.47921521 0.62423124 11.805358)
(36.116589 0.1418708 0.42344897 0.1418708 9.3619065 0.50800179 0.42344897 0.50800179 11.602722)
(35.673789 0.26350024 0.40408264 0.26350024 9.12077 0.37947477 0.40408264 0.37947477 11.449529)
(35.006406 0.33786419 0.33990815 0.33786419 8.901939 0.29422281 0.33990815 0.29422281 11.36189)
(34.59546 0.43055583 0.30317194 0.43055583 8.7499109 0.20906821 0.30317194 0.20906821 11.238187)
(34.360735 0.49054131 0.26285842 0.49054131 8.6503285 0.13497785 0.26285842 0.13497785 11.139276)
(34.18771 0.53124673 0.21459438 0.53124673 8.5816642 0.062905947 0.21459438 0.062905947 11.068295)
(34.15892 0.55588428 0.13891898 0.55588428 8.5609536 0.00091502611 0.13891898 0.00091502611 11.034462)
(36.142416 0.071724613 0.72636701 0.071724613 9.8567286 0.86825917 0.72636701 0.86825917 11.48557)
(35.339165 0.19821631 0.59075655 0.19821631 9.3821195 0.71893314 0.59075655 0.71893314 11.258186)
(34.461957 0.28192999 0.45975174 0.28192999 9.0079034 0.61015215 0.45975174 0.61015215 11.043022)
(33.418918 0.40702699 0.43131286 0.40702699 8.6620238 0.47186169 0.43131286 0.47186169 10.818741)
(32.934228 0.47684565 0.36972645 0.47684565 8.462735 0.37993048 0.36972645 0.37993048 10.743148)
(32.245494 0.58450184 0.36685267 0.58450184 8.257388 0.27269643 0.36685267 0.27269643 10.659061)
(31.884407 0.63329116 0.30253958 0.63329116 8.1383017 0.19663359 0.30253958 0.19663359 10.543958)
(31.623857 0.67281039 0.26079066 0.67281039 8.0501063 0.12544645 0.26079066 0.12544645 10.451507)
(31.479582 0.69918813 0.21454755 0.69918813 8.0012424 0.054594589 0.21454755 0.054594589 10.37727)
(31.465548 0.72212135 0.099461499 0.72212135 7.9862178 0.0067818951 0.099461499 0.0067818951 10.349579)
(33.759337 0.22763783 0.7110548 0.22763783 9.203564 0.82902823 0.7110548 0.82902823 10.839305)
(32.977902 0.31571956 0.57431593 0.31571956 8.7933672 0.70120909 0.57431593 0.70120909 10.652709)
(32.056809 0.45089122 0.48781997 0.45089122 8.4462144 0.58773259 0.48781997 0.58773259 10.494766)
(31.194629 0.56028125 0.45348552 0.56028125 8.1743341 0.46043915 0.45348552 0.46043915 10.334542)
(30.52341 0.68509272 0.41508449 0.68509272 7.9725788 0.35309788 0.41508449 0.35309788 10.255559)
(30.028795 0.71227223 0.38677286 0.71227223 7.8354755 0.25981642 0.38677286 0.25981642 10.210311)
(29.700255 0.74065688 0.32146927 0.74065688 7.7424873 0.18200776 0.32146927 0.18200776 10.101215)
(29.413843 0.77114891 0.2729933 0.77114891 7.6677745 0.11221362 0.2729933 0.11221362 10.011869)
(29.243707 0.80898994 0.21697294 0.80898994 7.621909 0.045841618 0.21697294 0.045841618 9.9725311)
(29.207518 0.82312512 0.089858195 0.82312512 7.6081241 0.0015024018 0.089858195 0.0015024018 9.9507974)
(31.399102 0.40406211 0.62309172 0.40406211 8.5446186 0.8139938 0.62309172 0.8139938 10.137468)
(30.620125 0.46739387 0.55440423 0.46739387 8.2026984 0.68538882 0.55440423 0.68538882 10.060163)
(29.813591 0.58026901 0.52072476 0.58026901 7.908362 0.5609023 0.52072476 0.5609023 9.9483789)
(28.93957 0.73895037 0.48299278 0.73895037 7.6569921 0.44309794 0.48299278 0.44309794 9.8395114)