/*--------------------------------*- C++ -*----------------------------------*\
| =========                 |                                                 |
| \\      /  F ield         | OpenFOAM: The Open Source CFD Toolbox           |
|  \\    /   O peration     | Version:  2.4.0                                 |
|   \\  /    A nd           | Web:      www.OpenFOAM.org                      |
|    \\/     M anipulation  |                                                 |
\*---------------------------------------------------------------------------*/
FoamFile
{
    version     2.0;
    format      ascii;
    class       volScalarField;
    location    "0.00574951018";
    object      T;
}
// * * * * * * * * * * * * * * * * * * * * * * * * * * * * * * * * * * * * * //

dimensions      [0 0 0 1 0 0 0];

internalField   nonuniform List<scalar> 
240308
(
6.6009583
6.9817072
6.7861381
6.2618343
6.417493
7.0690029
7.3730664
6.9338169
6.8987726
7.508869
7.3854896
6.9414842
6.1247294
5.8735578
6.0533771
7.9581128
4.9869115
7.5163822
5.9492106
6.9596148
6.5907694
6.7567268
6.2359421
7.0260796
6.3589424
7.3376112
7.4904945
6.8782595
6.900589
7.3706234
6.932782
5.8374241
6.0656467
6.0137068
7.9951217
7.5559714
5.0503783
5.9484126
5.6199725
5.6248534
5.8175709
6.4291843
5.5920318
6.2556652
6.3966489
7.227477
7.0339651
7.3294903
7.7229339
7.6951552
7.5959631
5.794637
6.3607695
5.5874857
6.2771741
6.4068044
7.2571724
7.0546036
7.377431
7.7525631
7.7067241
7.5971936
7.8063188
7.845984
7.8711285
7.8492535
7.8265749
7.8145354
7.8440945
7.870887
7.8634269
7.8387641
7.7681474
7.8274511
7.8235097
7.810224
7.8233197
7.7853593
7.8345195
7.8177934
7.8190999
7.8410602
7.7892849
7.833927
7.8207637
7.8374486
7.8509223
7.7801835
7.8408091
7.8112217
7.8334102
7.8625042
7.7343842
7.7480155
7.7661242
7.8067427
7.7733125
7.7246705
7.752052
7.7839691
7.7981433
7.7695896
7.7290359
7.7535926
7.7815348
7.8003247
7.7706734
7.7354489
7.7865731
7.7660904
7.7762117
7.8006269
7.7580108
7.826737
7.7841297
7.7839286
7.8267787
7.6248322
7.6327874
7.6846751
7.7238495
7.6661192
7.5982242
7.6168164
7.6720263
7.7175039
7.6649168
7.633044
7.6307346
7.6685044
7.7255333
7.6895816
7.6481497
7.7266831
7.6600755
7.6977882
7.7617855
7.4677395
7.5897333
7.5129228
7.4605865
7.5384025
7.4407701
7.4560686
7.5184975
7.5683422
7.5088494
7.4594302
7.4760656
7.5153238
7.5721091
7.5338416
7.4868784
7.5718451
7.4959436
7.5415757
7.6255869
7.5420212
7.6292581
7.5512406
7.5742639
7.6630002
7.6063935
7.6305519
7.7287794
7.7022768
7.6046665
7.2962042
7.3592491
7.3110722
7.3708856
7.4208651
7.2895688
7.3568641
7.2941206
7.3595895
7.4230274
7.2953951
7.3860117
7.3116481
7.3565683
7.4344463
7.3419851
7.4291318
7.3499064
7.38992
7.4721474
7.4080712
7.493945
7.4161901
7.4356135
7.5216809
7.4817138
7.5049771
7.5866356
7.5668118
7.4856763
7.1624113
7.219178
7.1731233
7.2345372
7.2752876
7.1407242
7.2192704
7.1548736
7.2199558
7.2775233
7.1651453
7.2489154
7.1733957
7.2195906
7.2930597
7.2120086
7.3082936
7.2372505
7.2568988
7.3283001
7.0208514
7.1134324
7.0440792
7.0755482
7.1460616
7.0882738
7.1980691
7.1072195
7.1275751
7.2148258
7.5306899
7.7030534
7.4332634
7.2579902
7.6353054
6.5282629
6.381634
5.8570338
6.514061
6.8892844
5.9440753
6.1847148
6.0324481
5.8635172
5.9647622
5.9992559
6.3686054
6.0315927
5.8628419
6.0984574
7.6528557
7.4902851
7.2915728
7.4391545
7.4690543
7.7527077
7.5603355
7.5834444
7.501066
7.3306828
7.5317163
7.1361712
7.4010643
7.476159
7.2187029
7.455517
7.3499308
7.1215682
7.0738733
7.2554673
6.7304423
6.8357506
6.450803
6.10295
6.6633949
7.5128106
7.3955996
7.7065034
7.6424782
7.2293137
6.5673352
5.9363441
6.4123715
6.8970417
6.5549703
5.9598045
6.0511652
6.2088174
5.9725561
5.8701702
6.0264759
6.0629552
6.402754
6.1272568
5.8922513
7.799205
7.8620977
7.8395283
7.8280261
7.8502482
7.8072808
7.872184
7.842363
7.8286203
7.8526692
7.7574349
7.8186997
7.80785
7.8109478
7.809568
7.7782595
7.8305102
7.8146271
7.8191571
7.8334262
7.7739294
7.8345848
7.8283684
7.8228856
7.8290901
7.7915364
7.8559013
7.8277363
7.8264735
7.8540801
7.7347769
7.7790982
7.7556843
7.7697739
7.8079565
7.727001
7.7874566
7.7482008
7.7741548
7.8117172
7.7325498
7.7765503
7.7582579
7.7825994
7.8035874
7.7430176
7.8201712
7.7870305
7.7710187
7.8042097
7.7543422
7.8357785
7.7998276
7.7832377
7.8230678
7.6260144
7.6855713
7.6327647
7.6677796
7.7226249
7.602494
7.6765599
7.621814
7.6663126
7.7197216
7.6326147
7.6718292
7.6337299
7.6945426
7.7309849
7.6569805
7.7637789
7.7013487
7.6656775
7.7272605
7.4760535
7.5165098
7.5891565
7.5396833
7.4719229
7.4463174
7.5236225
7.4562127
7.5124763
7.5759212
7.4653838
7.5162942
7.4702781
7.5353306
7.5768397
7.4972178
7.6276259
7.5415787
7.4954746
7.5762322
7.5447148
7.6673819
7.5824575
7.5497014
7.6280489
7.6180862
7.6177985
7.7190735
7.7329157
7.6293224
7.3025799
7.4297578
7.3778614
7.3166486
7.3648949
7.2896266
7.4255154
7.3663406
7.3028798
7.3637898
7.2942416
7.4309864
7.3619712
7.3214395
7.38949
7.3449202
7.4726731
7.3947982
7.3525344
7.4294421
7.4138218
7.5237996
7.4374905
7.4286648
7.5017863
7.5015093
7.4894899
7.5778481
7.5980004
7.5108821
7.1755627
7.2867152
7.2459492
7.188645
7.2308829
7.1563411
7.290203
7.2305386
7.1658704
7.2320426
7.1768191
7.3042568
7.2356446
7.1829403
7.2575916
7.2190262
7.3349142
7.2641528
7.2485115
7.3192968
7.0288152
7.1537732
7.0885096
7.0587655
7.1227956
7.0948642
7.224244
7.1369753
7.1253644
7.209622
7.7008173
7.3503575
7.5467564
7.5129987
7.490118
7.7908064
7.3933995
7.5487568
7.6160085
7.6116892
7.5620249
7.4420539
7.1666058
7.2306782
7.500761
7.5050221
7.1691134
7.3880849
7.2704846
7.1019551
6.7524212
6.4653401
6.8603428
6.6799942
6.1200566
11.800619
11.954837
11.969433
12.034264
11.995817
11.890899
12.129498
12.087006
12.076758
12.108769
11.899873
12.09639
12.118512
12.144374
12.12028
11.914267
12.132805
12.167411
12.14348
12.116482
11.936034
12.183428
12.162216
12.163286
12.157339
11.945153
12.211964
12.168235
12.131359
12.201829
11.991741
12.259044
12.167396
12.20064
12.279773
12.02331
12.282851
12.258473
12.237779
12.285013
12.049291
12.311188
12.268027
12.292283
12.321082
12.070464
12.288859
12.297961
12.329533
12.321009
12.083242
12.339389
12.275495
12.302593
12.370629
12.104705
12.306221
12.325493
12.361256
12.32986
12.074756
12.260041
12.259819
12.303691
12.314016
12.040024
12.223508
12.267665
12.269932
12.223553
11.927994
12.063503
12.11022
12.164964
12.109128
11.75712
12.014581
11.865787
11.817942
11.950681
11.474683
11.736805
11.593665
11.486588
11.625535
11.17826
11.299266
11.173717
11.284924
11.415021
11.790933
11.929148
11.980306
12.043411
11.951243
11.893367
12.088121
12.101093
12.114889
12.083765
11.900951
12.136629
12.114443
12.103496
12.123203
11.917957
12.1376
12.182393
12.138057
12.126046
11.958225
12.250098
12.198666
12.121484
12.18504
12.040466
12.329602
12.153763
12.232742
12.368742
12.118228
12.374079
12.259053
12.360736
12.467324
12.136978
12.396513
12.261738
12.388236
12.489451
12.175912
12.411877
12.343046
12.434058
12.514897
12.193933
12.459913
12.368697
12.432043
12.513693
12.225719
12.558201
12.485972
12.369166
12.436895
12.232862
12.441103
12.380664
12.473436
12.517801
12.187765
12.45232
12.380574
12.357949
12.432734
12.118337
12.265393
12.269381
12.371084
12.370085
11.934988
12.109246
12.212324
12.102021
12.016223
11.740187
11.826855
11.895609
11.974022
11.90971
11.475288
11.611175
11.460281
11.586633
11.740341
11.177449
11.307313
11.198104
11.27672
11.396612
11.791856
11.996708
11.955137
11.974852
12.047023
11.875257
12.073265
12.081564
12.105575
12.068541
11.942539
12.182426
12.120522
12.149376
12.194225
11.991228
12.224113
12.169574
12.228136
12.263753
12.07665
12.374316
12.227036
12.274817
12.370575
12.214042
12.483963
12.330725
12.440617
12.547446
12.287924
12.535826
12.46259
12.532477
12.584626
12.352338
12.612697
12.49452
12.586014
12.689696
12.339248
12.575638
12.499609
12.606225
12.656288
12.360644
12.634289
12.514404
12.552801
12.684283
12.39813
12.707677
12.64191
12.572281
12.624978
12.376868
12.672769
12.596164
12.515531
12.603233
12.312333
12.440348
12.559059
12.58012
12.498454
12.21146
12.456159
12.372813
12.360767
12.455605
12.025238
12.11966
12.301689
12.256893
12.100838
11.757833
11.936734
11.81402
11.893614
12.029612
11.486553
11.648026
11.50388
11.586903
11.736278
11.216879
11.310404
11.440674
11.370046
11.229603
11.797858
11.974349
12.048305
11.979441
11.935545
11.939038
12.092022
12.179949
12.166574
12.078654
12.016696
12.270016
12.189677
12.213305
12.294828
12.090237
12.381829
12.2753
12.275928
12.394228
12.223531
12.510604
12.364846
12.410349
12.525882
12.358735
12.628738
12.519658
12.574557
12.675153
12.414135
12.649669
12.602137
12.664525
12.739872
12.467322
12.74575
12.660916
12.64946
12.773565
12.532117
12.757526
12.688861
12.788091
12.859545
12.523267
12.705385
12.727596
12.79106
12.796015
12.557972
12.758841
12.731946
12.837748
12.851439
12.566399
12.856945
12.688503
12.714644
12.836598
12.443638
12.742834
12.639531
12.577739
12.695794
12.309848
12.52844
12.446516
12.465676
12.575874
12.106722
12.325691
12.183613
12.236812
12.386822
11.814754
12.002454
11.869547
11.934719
12.101757
11.533549
11.690538
11.566187
11.644367
11.788938
11.271761
11.498808
11.382883
11.287072
11.398882
11.854189
12.082552
12.123407
12.013829
11.993765
11.9947
12.260351
12.155957
12.15092
12.24677
12.137955
12.425307
12.279384
12.315068
12.438559
12.264256
12.547133
12.395263
12.460225
12.6047
12.364877
12.658598
12.518994
12.556802
12.674397
12.502141
12.758609
12.641282
12.722328
12.831591
12.537108
12.767864
12.733672
12.785468
12.838292
12.5933
12.837229
12.75567
12.836358
12.937843
12.623757
12.858393
12.846541
12.859787
12.898428
12.603464
12.839545
12.783358
12.849406
12.900107
12.648432
12.85974
12.833671
12.892816
12.9066
12.66055
12.903104
12.8935
12.842704
12.861706
12.585996
12.806108
12.736938
12.728877
12.840664
12.387035
12.602689
12.493698
12.522841
12.663666
12.155553
12.381912
12.254363
12.287234
12.42783
11.861287
12.028405
11.897903
11.988605
12.15341
11.55424
11.718116
11.574047
11.666465
11.819865
11.292556
11.516118
11.411432
11.308205
11.406628
11.969149
12.229513
12.221345
12.085415
12.111994
12.116616
12.401145
12.233917
12.253393
12.397805
12.297163
12.581792
12.41923
12.465254
12.599986
12.44271
12.642205
12.747941
12.704776
12.606179
12.518372
12.730842
12.838108
12.775955
12.684448
12.580038
12.774639
12.857951
12.85806
12.800981
12.612396
12.820043
12.813945
12.880126
12.924943
12.590913
12.795601
12.900064
12.865573
12.762733
12.596385
12.766769
12.87152
12.877738
12.820855
12.600219
12.847888
12.86065
12.789397
12.806841
12.64579
12.873689
12.894258
12.858462
12.820319
12.662123
12.858782
12.856384
12.863826
12.850665
12.592142
12.791346
12.758963
12.788895
12.815725
12.440494
12.666502
12.550698
12.581059
12.701899
12.21422
12.407446
12.294879
12.358308
12.483587
11.911531
12.118034
11.940244
12.008734
12.209639
11.590214
11.747046
11.593031
11.699119
11.856987
11.309344
11.425801
11.531323
11.440961
11.335572
12.086196
12.223402
12.336491
12.333537
12.194266
12.257735
12.52783
12.396318
12.400036
12.533646
12.453352
12.600171
12.745778
12.731979
12.598146
12.594264
12.800008
12.889866
12.837191
12.760134
12.657593
12.879409
12.94172
12.907064
12.830074
12.666787
12.923275
12.965571
12.908338
12.876985
12.607043
12.816162
12.88476
12.885909
12.813108
12.559242
12.730447
12.808606
12.861349
12.798191
12.474772
12.683871
12.788746
12.740945
12.640729
12.434675
12.669677
12.749133
12.632784
12.614098
12.527449
12.697695
12.791739
12.821357
12.674409
12.575352
12.740751
12.795636
12.821967
12.753232
12.551086
12.716629
12.712407
12.747139
12.753844
12.438268
12.586275
12.545854
12.632476
12.670221
12.220497
12.386415
12.315123
12.382426
12.463975
11.954244
12.110052
11.964347
12.079957
12.22044
11.618229
11.786239
11.636899
11.726339
11.881018
11.346914
11.485778
11.365794
11.452033
11.579686
12.220202
12.470108
12.322547
12.34477
12.486266
12.407935
12.66697
12.522562
12.517676
12.676423
12.57398
12.74936
12.854154
12.802561
12.721338
12.677409
12.859169
12.896762
12.893241
12.872768
12.688225
12.935341
12.912031
12.885284
12.915323
12.681529
12.937987
12.860819
12.839021
12.954155
12.603659
12.803017
12.855408
12.884616
12.835013
12.487565
12.661776
12.778934
12.776908
12.662046
12.355905
12.543545
12.599409
12.636163
12.573783
12.306413
12.513959
12.511656
12.562844
12.564225
12.386753
12.514016
12.620326
12.671015
12.548288
12.447823
12.577042
12.655855
12.710031
12.6132
12.419016
12.554797
12.56436
12.66283
12.629495
12.328216
12.466182
12.477111
12.545365
12.517189
12.181539
12.331067
12.247035
12.349889
12.419368
11.937154
12.104072
12.006054
12.083287
12.174621
11.672321
11.870599
11.687759
11.775828
11.941584
11.384542
11.555352
11.410684
11.4798
11.628887
12.378762
12.508255
12.633647
12.624561
12.477831
12.543239
12.690465
12.783284
12.770276
12.658122
12.631526
12.826883
12.855344
12.803255
12.813687
12.620022
12.793472
12.859139
12.852846
12.799252
12.596955
12.773904
12.876839
12.813574
12.765724
12.524893
12.710521
12.812316
12.721376
12.652499
12.480105
12.605095
12.785675
12.726703
12.589638
12.351556
12.50103
12.64634
12.61578
12.477901
12.254324
12.406666
12.535972
12.500158
12.404702
12.201615
12.405318
12.331654
12.391096
12.491014
12.199793
12.322257
12.423278
12.474815
12.350664
12.25434
12.368896
12.407662
12.52214
12.428808
12.253639
12.350132
12.434648
12.518628
12.399423
12.202166
12.290675
12.345646
12.4284
12.395762
12.111201
12.229738
12.196992
12.300345
12.310791
11.930949
12.086098
11.999912
12.083546
12.146687
11.730493
11.886375
11.788985
11.859347
11.949652
11.503301
11.655068
11.509306
11.562692
11.739744
12.487452
12.601138
12.714152
12.710737
12.612471
12.56844
12.754037
12.774006
12.768277
12.759445
12.610935
12.743158
12.817137
12.822312
12.775976
12.563288
12.723693
12.772402
12.785568
12.746718
12.528754
12.652872
12.744573
12.757777
12.684792
12.392357
12.569957
12.622091
12.600687
12.587698
12.332154
12.507731
12.560078
12.564273
12.533029
12.23796
12.33902
12.46687
12.495715
12.397244
12.125826
12.26456
12.372218
12.362272
12.28347
12.061148
12.186317
12.286002
12.251956
12.17713
12.069577
12.262192
12.290255
12.22088
12.223956
12.123261
12.362293
12.221451
12.242921
12.391952
12.143543
12.316246
12.324126
12.29471
12.287059
12.085194
12.26363
12.251319
12.218333
12.222115
12.030494
12.20797
12.196092
12.15716
12.151401
11.905079
12.070522
12.096179
12.020596
11.988031
11.72067
11.844071
11.813274
11.871392
11.907926
11.561815
11.673707
11.552913
11.629593
11.757086
12.362115
12.555944
12.581201
12.487937
12.485713
12.228983
12.329326
12.349463
12.46545
12.463876
12.078128
12.206644
12.20336
12.295808
12.311719
11.96548
12.083377
12.090872
12.183595
12.188397
11.912901
12.071474
12.038775
12.103289
12.130076
11.815534
11.974357
11.934898
12.005898
12.044292
11.763852
11.949854
11.991408
11.942313
11.914783
11.738844
11.919511
11.900516
11.922353
11.918021
11.722203
11.892125
11.897504
11.88669
11.877543
11.748092
11.908976
11.928903
11.937211
11.909599
12.29035
12.525876
12.454452
12.361116
12.460039
12.129536
12.357148
12.320987
12.218967
12.288686
11.975783
12.067496
12.102416
12.202193
12.173833
11.928475
12.131385
12.095958
12.054329
12.090359
11.856991
12.044252
12.017679
11.975157
12.012792
11.804812
11.980832
11.89106
11.93151
11.998604
11.753335
11.924923
11.865432
11.90055
11.936609
11.720383
11.899444
11.841763
11.8421
11.89125
11.697752
11.805748
11.878745
11.871701
11.798257
11.667571
11.772357
11.80767
11.860206
11.808657
12.251439
12.455186
12.414728
12.306526
12.361884
12.070692
12.282376
12.231898
12.111269
12.184499
11.931111
12.046178
12.061411
12.132258
12.099356
11.881791
12.009922
11.982253
12.017226
12.060641
11.802827
11.893877
11.908899
11.982964
11.977396
11.71257
11.884253
11.802559
11.797975
11.864322
11.663126
11.850451
11.770203
11.760292
11.819688
11.621314
11.789217
11.735357
11.730742
11.768695
11.57271
11.753982
11.699005
11.677591
11.704991
11.560268
11.653192
11.704078
11.725876
11.674217
12.124049
12.26048
12.298203
12.169975
12.153611
11.964795
12.122514
12.129119
12.017619
12.021726
11.848106
11.916123
11.878816
11.985372
12.024669
11.715763
11.79105
11.763816
11.884464
11.923287
11.666389
11.764903
11.704424
11.785033
11.843153
11.582454
11.730967
11.632884
11.651133
11.753428
11.5212
11.684908
11.594682
11.578303
11.653894
11.479386
11.663326
11.541989
11.523
11.62593
11.435524
11.60847
11.514593
11.482332
11.569311
11.399339
11.588516
11.498767
11.427576
11.512046
11.874715
11.983525
12.062597
11.886338
11.83126
11.741369
11.740525
11.696722
11.857774
11.933921
11.610254
11.640049
11.591054
11.731733
11.786039
11.501916
11.571792
11.494796
11.612376
11.689344
11.439079
11.490366
11.428329
11.542281
11.613696
11.376445
11.461811
11.370215
11.48821
11.570359
11.312163
11.492995
11.350861
11.294802
11.431015
11.258266
11.444984
11.311478
11.234691
11.36975
11.216082
11.396151
11.262688
11.195676
11.313106
11.174938
11.348749
11.260079
11.165745
11.256759
11.527486
11.499602
11.378338
11.56203
11.712279
11.40806
11.413051
11.305947
11.466641
11.598489
11.311745
11.346318
11.240764
11.381905
11.504931
11.205699
11.235836
11.144122
11.309728
11.408886
11.143988
11.198656
11.103614
11.226041
11.328982
11.091392
11.131161
11.039764
11.181053
11.280079
11.016336
11.078245
10.982656
11.100804
11.199063
10.966623
11.143493
10.992963
10.919342
11.058854
10.927804
10.877777
10.998588
11.107788
10.985686
10.9062
10.972681
11.082961
10.95447
10.85367
11.111152
11.053981
10.95211
11.143473
11.266628
11.039835
11.027683
10.892213
11.05275
11.207178
10.963898
10.950196
10.832029
11.010079
11.140387
10.888853
10.913761
10.79484
10.936343
11.052048
10.83235
10.838389
10.728244
10.896401
11.011277
10.777059
10.80852
10.69293
10.831502
10.953975
10.72762
10.900154
10.742195
10.651901
10.8019
10.674442
10.839867
10.700423
10.608564
10.739947
10.638467
10.571795
10.700973
10.805648
10.663232
10.617506
10.536334
10.6659
10.776964
10.646723
10.746715
10.737901
10.866099
10.691591
10.578051
10.668411
10.658051
10.798169
10.628163
10.503146
10.607509
10.594903
10.469931
10.625035
10.746561
10.567585
10.567854
10.437465
10.583867
10.715458
10.527724
10.546484
10.424975
10.551738
10.66257
10.490785
10.624247
10.476393
10.385373
10.524266
10.442598
10.589183
10.444677
10.350718
10.485531
10.406841
10.545597
10.404204
10.315924
10.445701
10.379696
10.275516
10.403484
10.511809
10.381614
10.350615
10.242288
10.372786
10.476541
10.344276
10.413364
10.324811
10.207326
10.366778
10.496493
10.346314
10.311398
10.189483
10.306918
10.435143
10.299969
10.243959
10.123633
10.286865
10.402586
10.272973
10.256087
10.117889
10.237676
10.372066
10.260057
10.229806
10.107998
10.24531
10.362328
10.229608
10.231766
10.114182
10.228568
10.335027
10.202861
10.30813
10.191933
10.098319
10.217212
10.19184
10.072522
10.168253
10.273253
10.174573
10.158109
10.055338
10.155214
10.238559
10.137577
10.134061
10.04304
10.127749
10.207895
10.126618
10.158064
10.059246
9.9730113
10.081578
10.160141
10.120224
10.031527
9.9364997
10.074527
10.152962
10.079307
10.015486
9.940423
10.037014
10.098591
10.064235
9.9981327
9.909154
10.019003
10.098138
10.055923
10.007148
9.9175873
10.001435
10.079398
10.055785
10.016569
9.9196718
10.016897
10.100683
10.057068
10.086253
10.01238
9.9391715
10.015488
10.045262
10.06769
10.005584
9.9240199
9.9935339
10.030637
10.053805
10.004749
9.9293752
9.9844808
10.031346
9.9233622
9.9867826
10.046871
9.9828239
9.9819053
9.8935613
9.8281109
9.9044871
9.9582662
9.9682972
9.8873321
9.8277434
9.8973997
9.9321601
9.9501901
9.86999
9.8060564
9.8874455
9.9345526
9.9349332
9.8666346
9.8231938
9.8805667
9.9077616
9.9398222
9.8696733
9.8162954
9.8750662
9.9207237
9.9443719
9.8925536
9.8436366
9.883515
9.9205216
9.9557373
9.9005244
9.8459494
9.9029066
9.939936
9.9572045
9.9333816
9.9047725
9.8510472
9.8910847
9.9577083
9.9438698
9.9141754
9.8600941
9.8976565
9.9612705
9.935029
9.899405
9.8576728
9.8959345
9.8942854
9.8145552
9.7593245
9.785732
9.8223347
9.8958159
9.7947452
9.7602382
9.8254594
9.8365812
9.879652
9.8042842
9.7727818
9.8171403
9.8187082
9.8836995
9.8089506
9.7755092
9.8164648
9.8347224
9.886924
9.8169323
9.7919767
9.823755
9.8331689
9.8979446
9.8306003
9.8093659
9.8426223
9.8512081
9.914479
9.8552607
9.820541
9.8453745
9.8643679
9.9147823
9.8479307
9.8229978
9.8624961
9.8765749
9.9253459
9.8781726
9.8664266
9.8243451
9.84232
9.922999
9.8307613
9.8450354
9.8751765
9.8564222
9.8448449
9.7230685
9.6761624
9.7407659
9.7657795
9.8521228
9.7770695
9.739872
9.7687516
9.7810311
9.8610205
9.7726619
9.7502119
9.7876136
9.7875371
9.8627279
9.7971162
9.780795
9.7946743
9.7941346
9.8742489
9.8072231
9.7889923
9.8069027
9.8108319
9.8834287
9.8119628
9.7987837
9.8154452
9.8174447
9.8896185
9.8391564
9.821861
9.8325091
9.8438879
9.8995311
9.8316924
9.8270893
9.8460892
9.8443013
9.8986663
9.8457323
9.830891
9.8364447
9.8482326
9.9027404
9.8216256
9.8377551
9.8478639
9.8385284
9.7924055
9.725806
9.6810708
9.6922077
9.6972999
9.8435362
9.754152
9.726362
9.7584234
9.7532962
9.8495358
9.7771832
9.7557928
9.7701935
9.7680627
9.8627337
9.7909533
9.7723543
9.7920505
9.7977523
9.8650416
9.8079916
9.7914548
9.8063301
9.806273
9.8721559
9.7994441
9.7934179
9.8115877
9.8132218
9.879145
9.8274132
9.82072
9.819029
9.8272901
9.8832424
9.8268957
9.810727
9.826481
9.838179
9.8912095
9.8399897
9.8345974
9.8410687
9.8405951
9.8779132
9.8155725
9.8290172
9.8335879
9.820034
9.7945365
9.7000695
9.6710345
9.7007035
9.7015167
9.8271716
9.745403
9.7233294
9.7417144
9.7449049
9.8370436
9.7693308
9.7428709
9.7637832
9.7785017
9.8376342
9.7901573
9.7659501
9.772569
9.790104
9.849518
9.7830828
9.7606735
9.7920416
9.8050039
9.8511173
9.8113777
9.7893799
9.7943684
9.8072632
9.8649781
9.8043347
9.789475
9.818643
9.8313812
9.8636993
9.8296454
9.8088178
9.8030555
9.8247127
9.8790963
9.8156885
9.8065252
9.8343791
9.8402902
9.8549435
9.8047157
9.7993308
9.8127505
9.8226025
9.76407
9.685234
9.6479759
9.6702129
9.695232
9.7879157
9.7194711
9.6765526
9.7074434
9.7364458
9.8000004
9.7546157
9.7112752
9.7337614
9.7650795
9.8070236
9.7528736
9.7207344
9.753608
9.7770641
9.7993188
9.7783132
9.7411756
9.7443845
9.7796543
9.8186571
9.7706219
9.7447432
9.7748888
9.7980455
9.818275
9.7801873
9.7525596
9.7790043
9.8009247
9.827267
9.7899909
9.7668537
9.7843761
9.8136576
9.8280349
9.790219
9.7709677
9.7897721
9.8159623
9.8105413
9.7898706
9.7598241
9.7841396
9.810688
9.6976559
9.6066369
9.5506737
9.6110497
9.6606568
9.7161651
9.6174099
9.6009126
9.6532193
9.679326
9.7295827
9.6618944
9.6066981
9.6663943
9.7081706
9.7345071
9.6958882
9.6454486
9.6840278
9.7320865
9.7533434
9.7099099
9.6617411
9.702398
9.7480271
9.7445987
9.7175575
9.6751291
9.7080027
9.7509471
9.7479822
9.7341989
9.6901929
9.7094952
9.7610662
9.7585511
9.7271885
9.68679
9.7281413
9.7714956
9.7458384
9.7329366
9.6830467
9.7121676
9.7737768
9.7417381
9.7268848
9.6833508
9.7157184
9.7661421
9.602149
9.525287
9.4313634
9.474421
9.5551189
9.6184546
9.5796904
9.5161217
9.5509024
9.6114234
9.6144441
9.5630045
9.5238077
9.5734156
9.611827
9.6273792
9.5863964
9.5167371
9.5801618
9.6365449
9.6394791
9.6074124
9.5486592
9.6054034
9.6651871
9.6484562
9.6261623
9.5702894
9.6188854
9.6737278
9.6470198
9.625426
9.5784772
9.6242584
9.6832927
9.638424
9.6297659
9.5690854
9.6084332
9.6845038
9.6314309
9.6034222
9.5564275
9.6122796
9.673327
9.627641
9.6245235
9.5599102
9.600965
9.6703924
9.4781729
9.4247684
9.3768654
9.4039864
9.4333039
9.5344115
9.4621637
9.4049126
9.4569317
9.5157317
9.5117425
9.4612228
9.405585
9.4551661
9.515976
9.5034225
9.465054
9.4144366
9.4588298
9.5182333
9.512522
9.4953372
9.4319941
9.475857
9.5378074
9.5140343
9.4841257
9.4262374
9.494637
9.5544518
9.5183012
9.4860512
9.4255878
9.4960051
9.5623337
9.5101007
9.5048945
9.4375323
9.4738995
9.5513776
9.4901578
9.5043806
9.448942
9.4900073
9.5568785
9.5010189
9.5075134
9.4486316
9.4815557
9.5495123
9.3846216
9.3371698
9.2686294
9.2921955
9.3675622
9.411724
9.3422737
9.293905
9.3433352
9.3940106
9.3933283
9.3445303
9.2934674
9.3346006
9.3887195
9.3930182
9.3397874
9.2938879
9.3484458
9.4051629
9.3887247
9.3574249
9.2995282
9.352333
9.4156632
9.3770035
9.3548102
9.3018339
9.3415301
9.4084641
9.3745426
9.3617213
9.3136381
9.351298
9.4123701
9.3769634
9.3755928
9.3164281
9.3499473
9.4244923
9.3881096
9.3743403
9.317515
9.3591178
9.4309812
9.3695623
9.388757
9.3225249
9.3599595
9.4337076
9.2777616
9.2344453
9.1685507
9.1907001
9.2649987
9.3042527
9.2188231
9.1744839
9.2298748
9.2905031
9.2804243
9.2347224
9.1857598
9.2135855
9.2768771
9.2778515
9.2430139
9.1953032
9.2258952
9.2849544
9.2610452
9.2209303
9.1760301
9.224453
9.2819293
9.2535259
9.2329507
9.1729694
9.2126776
9.2833819
9.2633299
9.2450181
9.1958515
9.2302272
9.2963825
9.2567203
9.2446742
9.1841411
9.2244728
9.3002162
9.258184
9.2491115
9.1992383
9.2391027
9.3069729
9.261583
9.2579951
9.1952015
9.2307495
9.3072407
9.1895688
9.1181286
9.0778597
9.0902835
9.1523942
9.1984615
9.1165092
9.1648153
9.1277689
9.0857068
9.1923691
9.1364675
9.0904338
9.1226771
9.1725369
9.1777233
9.1203142
9.0862633
9.1282503
9.1741129
9.1552252
9.1279162
9.0852239
9.1130882
9.165259
9.1443777
9.1194795
9.0776246
9.1049726
9.157279
9.1472756
9.1188061
9.0684519
9.1057023
9.1740185
9.1355049
9.1110892
9.0761545
9.1122009
9.1644243
9.1381949
9.1150586
9.0676422
9.1055839
9.1777069
9.139909
9.1195073
9.084623
9.1083282
9.169144
9.1035066
9.0081229
9.0589029
9.0171454
8.9791424
9.0976175
9.0103018
9.0638965
9.035384
8.9917975
9.0940012
9.020845
9.0800222
9.0288671
8.9874244
9.0734022
9.0262301
9.0761754
9.0437042
8.9968384
9.0742521
9.027042
9.0680363
9.0238745
8.9963695
9.0534047
9.0254114
8.9936037
9.013303
9.0594135
9.0430331
9.016629
8.9870148
9.0057115
9.0511809
9.0368686
9.0012481
8.9668974
9.0050807
9.0564125
9.0311969
9.0066179
8.9756508
8.9914513
9.0473073
9.0353654
9.0348589
8.980289
8.9995384
9.0675383
9.0258926
8.9231818
8.9625262
8.9384528
8.9175636
9.0167837
8.9268485
8.9744409
8.9497299
8.9116237
9.0172635
8.9386659
8.9796486
8.9596298
8.9165722
9.0094443
8.9474461
8.9754552
8.9389443
8.9178572
8.9881156
8.9423755
8.9890899
8.9530635
8.917131
8.9828779
8.9477216
8.9153349
8.929788
8.9754351
8.9652982
8.9319987
8.8954699
8.9266265
8.9773187
8.9498695
8.9239102
8.9027135
8.911887
8.948316
8.9462778
8.9193781
8.8860521
8.9120576
8.9627364
8.9383321
8.9198101
8.8919118
8.9087938
8.9544736
8.9596571
8.8566823
8.8990331
8.871857
8.8443613
8.9550018
8.8665385
8.9054441
8.8742874
8.8463911
8.9349103
8.8564036
8.8932348
8.8674912
8.835005
8.9247878
8.8592537
8.8990302
8.8675808
8.8343545
8.9164675
8.8618301
8.8943403
8.8646525
8.8376921
8.8980107
8.8621632
8.8284753
8.8556213
8.8955687
8.8866243
8.8530709
8.8282404
8.8459051
8.8807656
8.8441259
8.8575738
8.8265412
8.8461424
8.8872256
8.8757032
8.8382985
8.8155213
8.8435502
8.8757851
8.858009
8.8354009
8.8012248
8.8215184
8.8774932
8.8972707
8.7960505
8.8262575
8.8036422
8.7846956
8.8791867
8.7875296
8.831633
8.8070801
8.7699161
8.8646434
8.7908923
8.8157232
8.7830111
8.7608793
8.8548798
8.7756747
8.8175646
8.8100449
8.7716841
8.8491618
8.7967643
8.8242613
8.7915394
8.7751079
8.8213757
8.7877536
8.8193204
8.8044584
8.7776438
8.810627
8.7807588
8.8187364
8.7843607
8.7602695
8.814996
8.7675019
8.8159319
8.7765466
8.7439997
8.7949917
8.7554077
8.7254466
8.7620185
8.805937
8.7815374
8.7537746
8.7150787
8.7410156
8.7876028
8.8288075
8.7265454
8.7618303
8.7417393
8.7127063
8.8063548
8.7113188
8.7487359
8.733689
8.7042756
8.7947603
8.7060925
8.7444613
8.726554
8.6924495
8.7831496
8.7129805
8.7482811
8.7180714
8.6907996
8.7692477
8.7023041
8.7448016
8.7197627
8.6858143
8.7699586
8.7064929
8.7487399
8.7113467
8.6783229
8.7381073
8.6921983
8.7340601
8.6854834
8.6624287
8.7294763
8.6751789
8.7141611
8.6898837
8.6554281
8.6835522
8.690945
8.7139409
8.6770269
8.6616568
8.7092626
8.6654709
8.6427268
8.6581777
8.6931595
8.7699574
8.6590604
8.6951434
8.6740131
8.6536828
8.7505254
8.6534736
8.6794483
8.6540977
8.6414062
8.7296079
8.6446441
8.6768484
8.6406796
8.6216243
8.712644
8.6285548
8.6753868
8.6569746
8.6165927
8.6926323
8.6388005
8.6590918
8.6333336
8.6182071
8.6754549
8.6207694
8.6594835
8.6296951
8.6030476
8.6535416
8.6145639
8.6416523
8.6107672
8.5931002
8.643941
8.5932754
8.6396227
8.6019614
8.5653892
8.6441656
8.6014087
8.6403331
8.587037
8.5659878
8.6082008
8.5663722
8.6216289
8.5873418
8.5424168
8.7135387
8.6185364
8.6323564
8.6084331
8.6021931
8.6924702
8.5955114
8.6239226
8.5948936
8.5784362
8.6694066
8.5796051
8.6113958
8.5977431
8.5726217
8.6372302
8.5723309
8.5954205
8.5998062
8.5768539
8.6262687
8.5715112
8.5908979
8.5607505
8.554971
8.5982213
8.5424333
8.5780311
8.5444098
8.5203545
8.5804899
8.5324752
8.5675171
8.5196015
8.5005436
8.5493618
8.507288
8.5474269
8.5124073
8.4847291
8.5434062
8.4970423
8.5372241
8.4987297
8.4793417
8.5292133
8.4805547
8.5237536
8.5060136
8.4700815
8.6655212
8.5677319
8.5871502
8.5752848
8.5653642
8.6285272
8.5369462
8.5445811
8.5185826
8.5202359
8.61481
8.5199344
8.5468851
8.5367261
8.5162689
8.5970948
8.5218669
8.5524902
8.5180027
8.500329
8.5652064
8.5013756
8.5273576
8.49941
8.4850096
8.5355896
8.4880678
8.5001487
8.4754705
8.4700041
8.4980968
8.4553011
8.4778807
8.4472728
8.427609
8.475767
8.4313659
8.4584572
8.4339504
8.4305674
8.4630237
8.4295899
8.4631117
8.4299627
8.4025417
8.4503038
8.4063482
8.4540633
8.4179881
8.3926537
10.963897
11.068798
10.989973
11.037412
11.12103
10.971931
11.080625
10.98993
11.050492
11.149177
11.003893
11.130182
11.042703
11.084318
11.177285
11.067965
11.202077
11.096696
11.144018
11.246733
11.09179
11.189034
11.263755
11.199042
11.131981
11.131711
11.193113
11.30293
11.27212
11.169917
11.162329
11.322107
11.275338
11.219976
11.271407
11.200837
11.369825
11.325045
11.258953
11.302874
11.268498
11.456163
11.399233
11.310956
11.350135
11.368559
11.524573
11.519875
11.415856
11.419045
10.834583
10.910219
10.847632
10.891453
10.970383
10.836853
10.927242
10.873418
10.903865
10.965045
10.866925